
     Program MATDYN v.7.2 starts on 11Mar2026 at 23:20:11 

     This program is part of the open-source Quantum ESPRESSO suite
     for quantum simulation of materials; please cite
         "P. Giannozzi et al., J. Phys.:Condens. Matter 21 395502 (2009);
         "P. Giannozzi et al., J. Phys.:Condens. Matter 29 465901 (2017);
         "P. Giannozzi et al., J. Chem. Phys. 152 154105 (2020);
          URL http://www.quantum-espresso.org", 
     in publications or presentations arising from this work. More details at
     http://www.quantum-espresso.org/quote

     Serial multi-threaded version, running on    6 processor cores
     0 MiB available memory on the printing compute node when the environment starts

 Norm of the difference between old and new effective charges:    0.00000000000000000000

 Norm of the difference between old and new force-constants:   0.00035275714158254716

     Message from routine matdyn:
     Z* not found in file results_2x2x2/phonon/Nb.fc, TO-LO splitting at q=0 will be absent!

     MATDYN       :      1.62s CPU      0.69s WALL


   This run was terminated on:  23:20:12  11Mar2026            

=------------------------------------------------------------------------------=
   JOB DONE.
=------------------------------------------------------------------------------=
