
     Program PWSCF v.7.2 starts on  6Mar2026 at 21: 7: 2 

     This program is part of the open-source Quantum ESPRESSO suite
     for quantum simulation of materials; please cite

     Program PWSCF v.7.2 starts on  6Mar2026 at 21: 7: 2 

     This program is part of the open-source Quantum ESPRESSO suite
     for quantum simulation of materials; please cite
         "P. Giannozzi et al., J. Phys.:Condens. Matter 21 395502 (2009);
         "P. Giannozzi et al., J. Phys.:Condens. Matter 29 465901 (2017);
         "P. Giannozzi et al., J. Chem. Phys. 152 154105 (2020);
          URL http://www.quantum-espresso.org", 
     in publications or presentations arising from this work. More details at
     http://www.quantum-espresso.org/quote

     Serial multi-threaded version, running on    1 processor cores
     0 MiB available memory on the printing compute node when the environment starts

         "P. Giannozzi et al., J. Phys.:Condens. Matter 21 395502 (2009);
         "P. Giannozzi et al., J. Phys.:Condens. Matter 29 465901 (2017);
         "P. Giannozzi et al., J. Chem. Phys. 152 154105 (2020);
          URL http://www.quantum-espresso.org", 
     in publications or presentations arising from this work. More details at
     http://www.quantum-espresso.org/quote

     Serial multi-threaded version, running on    1 processor cores
     0 MiB available memory on the printing compute node when the environment starts


     Program PWSCF v.7.2 starts on  6Mar2026 at 21: 7: 2 

     This program is part of the open-source Quantum ESPRESSO suite
     for quantum simulation of materials; please cite
         "P. Giannozzi et al., J. Phys.:Condens. Matter 21 395502 (2009);
         "P. Giannozzi et al., J. Phys.:Condens. Matter 29 465901 (2017);
         "P. Giannozzi et al., J. Chem. Phys. 152 154105 (2020);
          URL http://www.quantum-espresso.org", 
     in publications or presentations arising from this work. More details at
     http://www.quantum-espresso.org/quote

     Serial multi-threaded version, running on    1 processor cores
     0 MiB available memory on the printing compute node when the environment starts

     Reading input from tmp_scf.in
     Reading input from tmp_scf.in
     Reading input from tmp_scf.in

     Program PWSCF v.7.2 starts on  6Mar2026 at 21: 7: 2 

     This program is part of the open-source Quantum ESPRESSO suite
     for quantum simulation of materials; please cite
         "P. Giannozzi et al., J. Phys.:Condens. Matter 21 395502 (2009);
         "P. Giannozzi et al., J. Phys.:Condens. Matter 29 465901 (2017);
         "P. Giannozzi et al., J. Chem. Phys. 152 154105 (2020);
          URL http://www.quantum-espresso.org", 
     in publications or presentations arising from this work. More details at
     http://www.quantum-espresso.org/quote

     Serial multi-threaded version, running on    1 processor cores
     0 MiB available memory on the printing compute node when the environment starts

     Reading input from tmp_scf.in

     Current dimensions of program PWSCF are:
     Max number of different atomic species (ntypx) = 10
     Max number of k-points (npk) =  40000
     Max angular momentum in pseudopotentials (lmaxx) =  4

     Current dimensions of program PWSCF are:
     Max number of different atomic species (ntypx) = 10
     Max number of k-points (npk) =  40000
     Max angular momentum in pseudopotentials (lmaxx) =  4

     Current dimensions of program PWSCF are:
     Max number of different atomic species (ntypx) = 10
     Max number of k-points (npk) =  40000
     Max angular momentum in pseudopotentials (lmaxx) =  4

     Current dimensions of program PWSCF are:
     Max number of different atomic species (ntypx) = 10
     Max number of k-points (npk) =  40000
     Max angular momentum in pseudopotentials (lmaxx) =  4


     G-vector sticks info
     --------------------
     sticks:   dense  smooth     PW     G-vecs:    dense   smooth      PW
     Sum        1047     531    169                21529     7707    1409

     Using Slab Decomposition



     bravais-lattice index     =            3
     lattice parameter (alat)  =       6.2350  a.u.
     unit-cell volume          =     121.1935 (a.u.)^3
     number of atoms/cell      =            1
     number of atomic types    =            1
     number of electrons       =        13.00
     number of Kohn-Sham states=           11
     kinetic-energy cutoff     =      60.0000  Ry
     charge density cutoff     =     480.0000  Ry
     scf convergence threshold =      1.0E-10
     mixing beta               =       0.7000
     number of iterations used =            8  plain     mixing
     Exchange-correlation= SLA  PW   PBE  PBE
                           (   1   4   3   4   0   0   0)

     celldm(1)=   6.235000  celldm(2)=   0.000000  celldm(3)=   0.000000
     celldm(4)=   
0.000000  celldm(5)=   0.000000  celldm(6)=   0.000000

     crystal axes: (cart. coord. in units of alat)
               a(1) = (   0.500000   0.500000   0.500000 )  
               a(2) = (  -0.500000   0.500000   0.500000 )  
               a(3) = (  -0.500000  -0.500000   0.500000 )  

     reciprocal axes: (cart. coord. in units 2 pi/alat)
               b(1) = (  1.000000  0.000000  1.000000 )  
               b(2) = ( -1.000000  1.000000  0.000000 )  
               b(3) = (  0.000000 -1.000000  1.000000 )  


     PseudoPot. # 1 for Nb read from file:
     ./pseudo/nb_pbe_v1.uspp.F.UPF
     MD5 check sum: 573aab8a2fa660278ed4a62cd769473f
     Pseudo is Ultrasoft + core correction, Zval = 13.0
     Generated by new atomic code, or converted to UPF format
     Using radial grid of  887 points,  6 beta functions with: 
                l(1) =   0
                l(2) =   0
                l(3) =   1
                l(4) =   1
                l(5) =   2
                l(6) =   2
     Q(r) pseudized with  6 coefficients,  rinner =    1.000   1.000   1.000
                                                       1.000   1.000

     atomic species   valence    mass     pseudopotential
        Nb            13.00    92.90600     Nb( 1.00)

     48 Sym. Ops., with inversion, found



   Cartesian axes

     site n.     atom                  positions (alat units)
         1           Nb  tau(   1) = (   0.0000000   0.0000000   0.0000000  )

     number of k points=    72  Marzari-Vanderbilt smearing, width (Ry)=  0.0200
                       cart. coord. in units 2pi/alat
        k(    1) = (   0.0000000   0.0000000   0.0000000), wk =   0.0011574
        k(    2) = (   0.0000000  -0.0833333   0.0833333), wk =   0.0138889
        k(    3) = (   0.0000000  -0.1666667   0.1666667), wk =   0.0138889
        k(    4) = (   0.0000000  -0.2500000   0.2500000), wk =   0.0138889
        k(    5) = (   0.0000000  -0.3333333   0.3333333), wk =   0.0138889
        k(    6) = (   0.0000000  -0.4166667   0.4166667), wk =   0.0138889
        k(    7) = (   0.0000000   0.5000000  -0.5000000), wk =   0.0069444
        k(    8) = (  -0.0833333  -0.0833333   0.1666667), wk =   0.0277778
        k(    9) = (  -0.0833333  -0.1666667   0.2500000), wk =   0.0555556
        k(   10) = (  -0.0833333  -0.2500000   0.3333333), wk =   0.0555556
        k(   11) = (  -0.0833333  -0.3333333   0.4166667), wk =   0.0555556
        k(   12) = (  -0.0833333   0.5833333  -0.5000000), wk =   0.0555556
        k(   13) = (  -0.1666667  -0.1666667   0.3333333), wk =   0.0277778
        k(   14) = (  -0.1666667  -0.2500000   0.4166667), wk =   0.0555556
        k(   15) = (  -0.1666667   0.6666667  -0.5000000), wk =   0.0555556
        k(   16) = (  -0.1666667   0.5833333  -0.4166667), wk =   0.0277778
        k(   17) = (  -0.2500000   0.7500000  -0.5000000), wk =   0.0277778
        k(   18) = (  -0.2500000   0.6666667  -0.4166667), wk =   0.0555556
        k(   19) = (  -0.3333333   0.6666667  -0.3333333), wk =   0.0092593
        k(   20) = (   0.0000000   0.0000000   0.1666667), wk =   0.0069444
        k(   21) = (   0.0000000  -0.0833333   0.2500000), wk =   0.0277778
        k(   22) = (   0.0000000  -0.1666667   0.3333333), wk =   0.0277778
        k(   23) = (   0.0000000  -0.2500000   0.4166667), wk =   0.0277778
        k(   24) = (   0.0000000  -0.3333333   0.5000000), wk =   0.0277778
        k(   25) = (   0.0000000   0.5833333  -0.4166667), wk =   0.0138889
        k(   26) = (  -0.0833333  -0.0833333   0.3333333), wk =   0.0277778
        k(   27) = (  -0.0833333  -0.1666667   0.4166667), wk =   0.0555556
        k(   28) = (  -0.0833333  -0.2500000   0.5000000), wk =   0.0555556
        k(   29) = (  -0.0833333   0.6666667  -0.4166667), wk =   0.0555556
        k(   30) = (  -0.1666667   0.1666667   0.1666667), wk =   0.0092593
        k(   31) = (  -0.1666667  -0.1666667   0.5000000), wk =   0.0277778
        k(   32) = (  -0.1666667   0.7500000  -0.4166667), wk =   0.0555556
        k(   33) = (  -0.1666667   0.6666667  -0.3333333), wk =   0.0277778
        k(   34) = (  -0.2500000   0.2500000   0.1666667), wk =   0.0277778
        k(   35) = (  -0.2500000   0.7500000  -0.3333333), wk =   0.0277778
        k(   36) = (  -0.3333333   0.3333333   0.1666667), wk =   0.0277778
        k(   37) = (  -0.3333333   0.2500000   0.2500000), wk =   0.0277778
        k(   38) = (   0.5833333  -0.5833333   0.1666667), wk =   0.0277778
        k(   39) = (   0.5833333  -0.6666667   0.2500000), wk =   0.0555556
        k(   40) = (   0.5000000  -0.5000000   0.1666667), wk =   0.0138889
        k(   41) = (   0.5000000  -0.5833333   0.2500000), wk =   0.0555556
        k(   42) = (   0.5000000  -0.6666667   0.3333333), wk =   0.0277778
        k(   43) = (   0.4166667  -0.5833333   0.3333333), wk =   0.0277778
        k(   44) = (   0.0000000   0.0000000   0.3333333), wk =   0.0069444
        k(   45) = (   0.0000000  -0.0833333   0.4166667), wk =   0.0277778
        k(   46) = (   0.0000000  -0.1666667   0.5000000), wk =   0.0277778
        k(   47) = (   0.0000000  -0.2500000   0.5833333), wk =   0.0277778
        k(   48) = (   0.0000000   0.6666667  -0.3333333), wk =   0.0138889
        k(   49) = (  -0.0833333  -0.0833333   0.5000000), wk =   0.0277778
        k(   50) = (  -0.0833333  -0.1666667   0.5833333), wk =   0.0555556
        k(   51) = (  -0.0833333   0.7500000  -0.3333333), wk =   0.0555556
        k(   52) = (  -0.1666667   0.8333333  -0.3333333), wk =   0.0277778
        k(   53) = (  -0.1666667   0.7500000  -0.2500000), wk =   0.0277778
        k(   54) = (   0.6666667  -0.6666667   0.3333333), wk =   0.0092593
        k(   55) = (   0.5833333  -0.5833333   0.3333333), wk =   0.0277778
        k(   56) = (   0.5000000  -0.5000000   0.3333333), wk =   0.0138889
        k(   57) = (   0.5000000  -0.5833333   0.4166667), wk =   0.0277778
        k(   58) = (   0.0000000   0.0000000   0.5000000), wk =   0.0069444
        k(   59) = (   0.0000000  -0.0833333   0.5833333), wk =   0.0277778
        k(   60) = (   0.0000000  -0.1666667   0.6666667), wk =   0.0277778
        k(   61) = (   0.0000000   0.7500000  -0.2500000), wk =   0.0138889
        k(   62) = (  -0.0833333  -0.0833333   0.6666667), wk =   0.0277778
        k(   63) = (  -0.0833333   0.8333333  -0.2500000), wk =   0.0555556

     G-vector sticks info
     --------------------
     sticks:   dense  smooth     PW     G-vecs:    dense   smooth      PW
     Sum        1047     531    169                21529     7707    1409
        k(   64) = (  -0.1666667   0.8333333  -0.1666667), wk =   0.0092593
        k(   65) = (   0.5000000  -0.5000000   0.5000000), wk =   0.0023148
        k(   66) = (   0.0000000   0.0000000   0.6666667), wk =   0.0069444
        k(   67) = (   0.0000000  -0.0833333   0.7500000), wk =   0.0277778
        k(   68) = (   0.0000000   0.8333333  -0.1666667), wk =   0.0138889
        k(   69) = (  -0.0833333   0.9166667  -0.1666667), wk =   0.0277778
        k(   70) = (   0.0000000   0.0000000   0.8333333), wk =   0.0069444
        k(   71) = (   0.0000000   0.9166667  -0.0833333), wk =   0.0138889
        k(   72) = (   0.0000000   0.0000000  -1.0000000), wk =   0.0011574

     Dense  grid:    21529 G-vectors     FFT dimensions: (  40,  40,  40)

     Smooth grid:     7707 G-vectors     FFT dimensions: (  27,  27,  27)

     Estimated max dynamical RAM per process >      88.34 MB

     Using Slab Decomposition



     bravais-lattice index     =            3
     lattice parameter (alat)  =       6.2350  a.u.
     unit-cell volume          =     121.1935 (a.u.)^3
     number of atoms/cell      =            1
     number of atomic types    =            1
     number of electrons       =        13.00
     number of Kohn-Sham states=           11
     kinetic-energy cutoff     =      60.0000  Ry
     charge density cutoff     =     480.0000  Ry
     scf convergence threshold =      1.0E-10
     mixing beta               =       0.7000
     number of iterations used =            8  plain     mixing
     Exchange-correlation= SLA  PW   PBE  PBE
                           (   1   4   3   4   0   0   0)

     celldm(1)=   6.235000  celldm(2)=   0.000000  celldm(3)=   0.000000
     celldm(4)=   0.000000  celldm(5)=   0.000000  celldm(6)=   0.000000

     crystal axes: (cart. coord. in units of alat)
               a(1) = (   0.500000   0.500000   0.500000 )  
               a(2) = (  -0.50000
0   0.500000   0.500000 )  
               a(3) = (  -0.500000  -0.500000   0.500000 )  

     reciprocal axes: (cart. coord. in units 2 pi/alat)
               b(1) = (  1.000000  0.000000  1.000000 )  
               b(2) = ( -1.000000  1.000000  0.000000 )  
               b(3) = (  0.000000 -1.000000  1.000000 )  


     PseudoPot. # 1 for Nb read from file:
     ./pseudo/nb_pbe_v1.uspp.F.UPF
     MD5 check sum: 573aab8a2fa660278ed4a62cd769473f
     Pseudo is Ultrasoft + core correction, Zval = 13.0
     Generated by new atomic code, or converted to UPF format
     Using radial grid of  887 points,  6 beta functions with: 
                l(1) =   0
                l(2) =   0
                l(3) =   1
                l(4) =   1
                l(5) =   2
                l(6) =   2
     Q(r) pseudized with  6 coefficients,  rinner =    1.000   1.000   1.000
                                                       1.000   1.000

     atomic species   valence    mass     pseudopotential
        Nb            
13.00    92.90600     Nb( 1.00)

     48 Sym. Ops., with inversion, found



   Cartesian axes

     site n.     atom                  positions (alat units)
         1           Nb  tau(   1) = (   0.0000000   0.0000000   0.0000000  )

     number of k points=    72  Marzari-Vanderbilt smearing, width (Ry)=  0.0200
                       cart. coord. in units 2pi/alat
        k(    1) = (   0.0000000   0.0000000   0.0000000), wk =   0.0011574
        k(    2) = (   0.0000000  -0.0833333   0.0833333), wk =   0.0138889
        k(    3) = (   0.0000000  -0.1666667   0.1666667), wk =   0.0138889
        k(    4) = (   0.0000000  -0.2500000   0.2500000), wk =   0.0138889
        k(    5) = (   0.0000000  -0.3333333   0.3333333), wk =   0.0138889
        k(    6) = (   0.0000000  -0.4166667   0.4166667), wk =   0.0138889
        k(    7) = (   0.0000000   0.5000000  -0.5000000), wk =   0.0069444
        k(    8) = (  -0.0833333  -0.0833333   0.1666667), wk =   0.0277778
        k(    9) = (  -0.0833333  -0.1666667   0.2500000), wk =   0.0555556
        k(   10) = (  -0.0833333  -0.2500000   0.3333333), wk =   0.0555556
        k(   11) = (  -0.0833333  -0.3333333   0.4166667), wk =   0.0555556
        k(   12) = (  -0.0833333   0.5833333  -0.5000000), wk =   0.0555556
        k(   13) = (  -0.1666667  -0.1666667   0.3333333), wk =   0.0277778
        k(   14) = (  -0.1666667  -0.2500000   0.4166667), wk =   0.0555556
        k(   15) = (  -0.1666667   0.6666667  -0.5000000), wk =   0.0555556
        k(   16) = (  -0.1666667   0.5833333  -0.4166667), wk =   0.0277778
        k(   17) = (  -0.2500000   0.7500000  -0.5000000), wk =   0.0277778
        k(   18) = (  -0.2500000   0.6666667  -0.4166667), wk =   0.0555556
        k(   19) = (  -0.3333333   0.6666667  -0.3333333), wk =   0.0092593
        k(   20) = (   0.0000000   0.0000000   0.1666667), wk =   0.0069444
        k(   21) = (   0.0000000  -0.0833333   0.2500000), wk =   0.0277778
        k(   22) = (   0.0000000  -0.1666667   0.3333333), wk =   0.0277778
        k(   23) = (   0.0000000  -0.2500000   0.4166667), wk =   0.0277778
        k(   24) = (   0.0000000  -0.3333333   0.5000000), wk =   0.0277778
        k(   25) = (   0.0000000   0.5833333  -0.4166667), wk =   0.0138889
        k(   26) = (  -0.0833333  -0.0833333   0.3333333), wk =   0.0277778
        k(   27) = (  -0.0833333  -0.1666667   0.4166667), wk =   0.0555556
        k(   28) = (  -0.0833333  -0.2500000   0.5000000), wk =   0.0555556
        k(   29) = (  -0.0833333   0.6666667  -0.4166667), wk =   0.0555556
        k(   30) = (  -0.1666667   0.1666667   0.1666667), wk =   0.0092593
        k(   31) = (  -0.1666667  -0.1666667   0.5000000), wk =   0.0277778
        k(   32) = (  -0.1666667   0.7500000  -0.4166667), wk =   0.0555556
        k(   33) = (  -0.1666667   0.6666667  -0.3333333), wk =   0.0277778
        k(   34) = (  -0.2500000   0.2500000   0.1666667), wk =   0.0277778
        k(   35) = (  -0.2500000   0.7500000  -0.3333333), wk =   0.0277778
        k(   36) = (  -0.3333333   0.3333333   0.1666667), wk =   0.0277778
        k(   37) = (  -0.3333333   0.2500000   0.2500000), wk =   0.0277778
        k(   38) = (   0.5833333  -0.5833333   0.1666667), wk =   0.0277778
        k(   39) = (   0.5833333  -0.6666667   0.2500000), wk =   0.0555556
        k(   40) = (   0.5000000  -0.5000000   0.1666667), wk =   0.0138889
        k(   41) = (   0.5000000  -0.5833333   0.2500000), wk =   0.0555556
        k(   42) = (   0.5000000  -0.6666667   0.3333333), wk =   0.0277778
        k(   43) = (   0.4166667  -0.5833333   0.3333333), wk =   0.0277778
        k(   44) = (   0.0000000   0.0000000   0.3333333), wk =   0.0069444
        k(   45) = (   0.0000000  -0.0833333   0.4166667), wk =   0.0277778
        k(   46) = (   0.0000000  -0.1666667   0.5000000), wk =   0.0277778
        k(   47) = (   0.0000000  -0.2500000   0.5833333), wk =   0.0277778
        k(   48) = (   0.0000000   0.6666667  -0.3333333), wk =   0.0138889
        k(   49) = (  -0.0833333  -0.0833333   0.5000000), wk =   0.0277778
        k(   50) = (  -0.0833333  -0.1666667   0.5833333), wk =   0.0555556
        k(   51) = (  -0.0833333   0.7500000  -0.3333333), wk =   0.0555556
        k(   52) = (  -0.1666667   0.8333333  -0.3333333), wk =   0.0277778
        k(   53) = (  -0.1666667   0.7500000  -0.2500000), wk =   0.0277778
        k(   54) = (   0.6666667  -0.6666667   0.3333333), wk =   0.0092593

     G-vector sticks info
     --------------------
        k(   55) = (   0.5833333  -0.5833333   0.3333333), wk =   0.0277778
        k(   56) = (   0.5000000  -0.5000000   0.3333333), wk =   0.0138889
        k(   57) = (   0.5000000  -0.5833333   0.4166667), wk =   0.0277778
     sticks:   dense  smooth     PW     G-vecs:    dense   smooth      PW
        k(   58) = (   0.0000000   0.0000000   0.5000000), wk =   0.0069444
        k(   59) = (   0.0000000  -0.0833333   0.5833333), wk =   0.0277778
     Sum        1047     531    169                21529     7707    1409

        k(   60) = (   0.0000000  -0.1666667   0.6666667), wk =   0.0277778
        k(   61) = (   0.0000000   0.7500000  -0.2500000), wk =   0.0138889
        k(   62) = (  -0.0833333  -0.0833333   0.6666667), wk =   0.0277778
     Using Slab Decomposition

        k(   63) = (  -0.0833333   0.8333333  -0.2500000), wk =   0.0555556
        k(   64) = (  -0.1666667   0.8333333  -0.1666667), wk =   0.0092593
        k(   65) = (   0.5000000  -0.5000000   0.5000000), wk =   0.0023148
        k(   66) = (   0.0000000   0.0000000   0.6666667), wk =   0.0069444
        k(   67) = (   0.0000000  -0.0833333   0.7500000), wk =   0.0277778
        k(   68) = (   0.0000000   0.8333333  -0.1666667), wk =   0.0138889
        k(   69) = (  -0.0833333   0.9166667  -0.1666667), wk =   0.0277778
        k(   70) = (   0.0000000   0.0000000   0.8333333), wk =   0.0069444
        k(   71) = (   0.0000000   0.9166667  -0.0833333), wk =   0.0138889
        k(   72) = (   0.0000000   0.0000000  -1.0000000), wk =   0.0011574

     Dense  grid:    21529 G-vectors     FFT dimensions: (  40,  40,  40)

     Smooth grid:     7707 G-vectors     FFT dimensions: (  27,  27,  27)

     Estimated max dynamical RAM per process >      88.34 MB


     bravais-lattice index     =            3
     lattice parameter (alat)  =       6.2350  a.u.
     unit-cell volume          =     121.1935 (a.u.)^3
     number of atoms/cell      =            1
     number of atomic types    =            1
     number of electrons       =        13.00
     number of Kohn-Sham states=           11
     kinetic-energy cutoff     =      60.0000  Ry
     charge density cutoff     =     480.0000  Ry
     scf convergence threshold =      1.0E-10
     mixing beta               =       0.7000
     number of iterations used =            8  plain     mixing
     Exchange-correlation= SLA  PW   PBE  PBE
                           (   1   4   3   4   0   0   0)

     celldm(1)=   6.235000  celldm(2)=   0.000000  celldm(3)=   0.000000
     celldm(4)=   0.000000  celldm(5)=   0.000000  celldm(6)=   0.000000

     crystal axes: (cart. coord. in units of alat)
               a(1) = (   0.500000   0.500000   0.500000 )  
               a(2) = (  -0.500000   0.500000   0.500000 )  
               a(3) = (  -0.500000  -0.500000   0.500000 )  

     reciprocal axes: (cart. coord. in units 2 pi/alat)
               b(1) = (  1.000000  0.000000  1.000000 )  
               b(2) = ( -1.000000  1.000000  0.000000 )  
               b(3) = (  0.000000 -1.000000  1.000000 )  


     PseudoPot. # 1 for Nb read from file:
     ./pseudo/nb_pbe_v1.uspp.F.UPF
     MD5 check sum: 573aab8a2fa660278ed4a62cd769473f
     Pseudo is Ultrasoft + core correction, Zval = 13.0
     Generated by new atomic code, or converted to UPF format
     Using radial grid of  887 points,  6 beta functions with: 
                l(1) =   0
                l(2) =   0
                l(3) =   1
                l(4) =   1
                l(5) =   2
                l(6) =   2
     Q(r) pseudized with  6 coefficients,  rinner =    1.000   1.000   1.000
                                                       1.000   1.000

     atomic species   valence    mass     pseudopotential
        Nb            13.00    92.90600     Nb( 1.00)

     48 Sym. Ops., with inversion, found



   Cartesian axes

     site n.     atom                  positions (alat units)
         1           Nb  tau(   1) = (   0.0000000   0.0000000   0.0000000  )

     number of k points=    72  Marzari-Vanderbilt smearing, width (Ry)=  0.0200
                       cart. coord. in units 2pi/alat
        k(    1) = (   0.0000000   0.0000000   0.0000000), wk =   0.0011574
        k(    2) = (   0.0000000  -0.0833333   0.0833333), wk =   0.0138889
        k(    3) = (   0.0000000  -0.1666667   0.1666667), wk =   0.0138889
        k(    4) = (   0.0000000  -0.2500000   0.2500000), wk =   0.0138889
        k(    5) = (   0.0000000  -0.3333333   0.3333333), wk =   0.0138889
        k(    6) = (   0.0000000  -0.4166667   0.4166667), wk =   0.0138889
        k(    7) = (   0.0000000   0.5000000  -0.5000000), wk =   0.0069444
        k(    8) = (  -0.0833333  -0.0833333   0.1666667), wk =   0.0277778
        k(    9) = (  -0.0833333  -0.1666667   0.2500000), wk =   0.0555556
        k(   10) = (  -0.0833333  -0.2500000   0.3333333), wk =   0.0555556
        k(   11) = (  -0.0833333  -0.3333333   0.4166667), wk =   0.0555556
        k(   12) = (  -0.0833333   0.5833333  -0.5000000), wk =   0.0555556
        k(   13) = (  -0.1666667  -0.1666667   0.3333333), wk =   0.0277778
        k(   14) = (  -0.1666667  -0.2500000   0.4166667), wk =   0.0555556
        k(   15) = (  -0.1666667   0.6666667  -0.5000000), wk =   0.0555556
        k(   16) = (  -0.1666667   0.5833333  -0.4166667), wk =   0.0277778
        k(   17) = (  -0.2500000   0.7500000  -0.5000000), wk =   0.0277778
        k(   18) = (  -0.2500000   0.6666667  -0.4166667), wk =   0.0555556
        k(   19) = (  -0.3333333   0.6666667  -0.3333333), wk =   0.0092593
        k(   20) = (   0.0000000   0.0000000   0.1666667), wk =   0.0069444
        k(   21) = (   0.0000000  -0.0833333   0.2500000), wk =   0.0277778
        k(   22) = (   0.0000000  -0.1666667   0.3333333), wk =   0.0277778
        k(   23) = (   0.0000000  -0.2500000   0.4166667), wk =   0.0277778
        k(   24) = (   0.0000000  -0.3333333   0.5000000), wk =   0.0277778
        k(   25) = (   0.0000000   0.5833333  -0.4166667), wk =   0.0138889
        k(   26) = (  -0.0833333  -0.0833333   0.3333333), wk =   0.0277778
        k(   27) = (  -0.0833333  -0.1666667   0.4166667), wk =   0.0555556
        k(   28) = (  -0.0833333  -0.2500000   0.5000000), wk =   0.0555556
        k(   29) = (  -0.0833333   0.6666667  -0.4166667), wk =   0.0555556
        k(   30) = (  -0.1666667   0.1666667   0.1666667), wk =   0.0092593
        k(   31) = (  -0.1666667  -0.1666667   0.5000000), wk =   0.0277778
        k(   32) = (  -0.1666667   0.7500000  -0.4166667), wk =   0.0555556
        k(   33) = (  -0.1666667   0.6666667  -0.3333333), wk =   0.0277778

     G-vector sticks info
     --------------------
     sticks:   dense  smooth     PW     G-vecs:    dense   smooth      PW
     Sum        1047     531    169                21529     7707    1409

     Using Slab Decomposition

        k(   34) = (  -0.2500000   0.2500000   0.1666667), wk =   0.0277778
        k(   35) = (  -0.2500000   0.7500000  -0.3333333), wk =   0.0277778
        k(   36) = (  -0.3333333   0.3333333   0.1666667), wk =   0.0277778
        k(   37) = (  -0.3333333   0.2500000   0.2500000), wk =   0.0277778
        k(   38) = (   0.5833333  -0.5833333   0.1666667), wk =   0.0277778
        k(   39) = (   0.5833333  -0.6666667   0.2500000), wk =   0.0555556
        k(   40) = (   0.5000000  -0.5000000   0.1666667), wk =   0.0138889
        k(   41) = (   0.5000000  -0.5833333   0.2500000), wk =   0.0555556
        k(   42) = (   0.5000000  -0.6666667   0.3333333), wk =   0.0277778
        k(   43) = (   0.4166667  -0.5833333   0.3333333), wk =   0.0277778
        k(   44) = (   0.0000000   0.0000000   0.3333333), wk =   0.0069444
        k(   45) = (   0.0000000  -0.0833333   0.4166667), wk =   0.0277778
        k(   46) = (   0.0000000  -0.1666667   0.5000000), wk =   0.0277778
        k(   47) = (   0.0000000  -0

     bravais-lattice index     =            3
     lattice parameter (alat)  =       6.2350  a.u.
     unit-cell volume          =     121.1935 (a.u.)^3
     number of atoms/cell      =            1
     number of atomic types    =            1
     number of electrons       =        13.00
     number of Kohn-Sham states=           11
     kinetic-energy cutoff     =      60.0000  Ry
     charge density cutoff     =     480.0000  Ry
     scf convergence threshold =      1.0E-10
     mixing beta               =       0.7000
     number of iterations used =            8  plain     mixing
     Exchange-correlation= SLA  PW   PBE  PBE
                           (   1   4   3   4   0   0   0)

     celldm(1)=   6.235000  celldm(2)=   0.000000  celldm(3)=   0.000000
     celldm(4)=   0.000000  celldm(5)=   0.000000  celldm(6)=   0.000000

     crystal axes: (cart. coord. in units of alat)
               a(1) = (   0.500000   0.500000   0.500000 )  
               a(2) = (  -0.500000   0.500000   0.500000 )  
               a(3) = (  -0.500000  -0.500000   0.500000 )  

     reciprocal axes: (cart. coord. in units 2 pi/alat)
               b(1) = (  1.000000  0.000000  1.000000 )  
               b(2) = ( -1.000000  1.000000  0.000000 )  
               b(3) = (  0.000000 -1.000000  1.000000 )  

.2500000   0.5833333), wk =   0.0277778

     PseudoPot. # 1 for Nb read from file:
     ./pseudo/nb_pbe_v1.uspp.F.UPF
     MD5 check sum: 573aab8a2fa660278ed4a62cd769473f
     Pseudo is Ultrasoft + core correction, Zval = 13.0
     Generated by new atomic code, or converted to UPF format
     Using radial grid of  887 points,  6 beta functions with: 
                l(1) =   0
                l(2) =   0
                l(3) =   1
                l(4) =   1
                l(5) =   2
                l(6) =   2
        k(   48) = (   0.0000000   0.6666667  -0.3333333), wk =   0.0138889
     Q(r) pseudized with  6 coefficients,  rinner =    1.000   1.000   1.000
                                                       1.000   1.000

     atomic species   valence    mass     pseudopotential
        Nb            13.00    92.90600     Nb( 1.00)

     48 Sym. Ops., with inversion, found



   Cartesian axes

     site n.     atom                  positions (alat units)
         1           Nb  tau(   1) = (   0.0000000   0.0000000   0.0000000  )

     number of k points=    72  Marzari-Vanderbilt smearing, width (Ry)=  0.0200
                       cart. coord. in units 2pi/alat
        k(    1) = (   0.0000000   0.0000000   0.0000000), wk =   0.0011574
        k(    2) = (   0.0000000  -0.0833333   0.0833333), wk =   0.0138889
        k(    3) = (   0.0000000  -0.1666667   0.1666667), wk =   0.0138889
        k(    4) = (   0.0000000  -0.2500000   0.2500000), wk =   0.0138889
        k(    5) = (   0.0000000  -0.3333333   0.3333333), wk =   0.0138889
        k(    6) = (   0.0000000  -0.4166667   0.4166667), wk =   0.0138889
        k(    7) = (   0.0000000   0.5000000  -0.5000000), wk =   0.0069444
        k(    8) = (  -0.0833333  -0.0833333   0.1666667), wk =   0.0277778
        k(    9) = (  -0.0833333  -0.1666667   0.2500000), wk =   0.0555556
        k(   10) = (  -0.0833333  -0.2500000   0.3333333), wk =   0.0555556
        k(   11) = (  -0.0833333  -0.3333333   0.4166667), wk =   0.0555556
        k(   12) = (  -0.0833333   0.5833333  -0.5000000), wk =   0.0555556
        k(   13) = (  -0.1666667  -0.1666667   0.3333333), wk =   0.0277778
        k(   14) = (  -0.1666667  -0.2500000   0.4166667), wk =   0.0555556
        k(   15) = (  -0.1666667   0.6666667  -0.5000000), wk =   0.0555556
        k(   16) = (  -0.1666667   0        k(   49) = (  -0.0833333  -0.0833333   0.5000000), wk =   0.0277778
        k(   50) = (  -0.0833333  -0.1666667   0.5833333), wk =   0.0555556
        k(   51) = (  -0.0833333   0.7500000  -0.3333333), wk =   0.0555556
        k(   52) = (  -0.1666667   0.8333333  -0.3333333), wk =   0.0277778
.5833333  -0.4166667), wk =   0.0277778
        k(   53) = (  -0.1666667   0.7500000  -0.2500000), wk =   0.0277778
        k(   54) = (   0.6666667  -0.6666667   0.3333333), wk =   0.0092593
        k(   55) = (   0.5833333  -0.5833333   0.3333333), wk =   0.0277778
        k(   56) = (   0.5000000  -0.5000000   0.3333333), wk =   0.0138889
        k(   57) = (   0.5000000  -0.5833333   0.4166667), wk =   0.0277778
        k(   58) = (   0.0000000   0.0000000   0.5000000), wk =   0.0069444
        k(   59) = (   0.0000000  -0.0833333   0.5833333), wk =   0.0277778
        k(   60) = (   0.0000000  -0.1666667   0.6666667), wk =   0.0277778
        k(   61) = (   0.0000000   0.7500000  -0.2500000), wk =   0.0138889
        k(   62) = (  -0.0833333  -0.0833333   0.6666667), wk =   0.0277778
        k(   63) = (  -0.0833333   0.8333333  -0.2500000), wk =   0.0555556
        k(   64) = (  -0.1666667   0.8333333  -0.1666667), wk =   0.0092593
        k(   65) = (   0.5000000  -0.5000000   0.5000000), wk =   0.0023148
        k(   17) = (  -0.2500000   0.7500000  -0.5000000), wk =   0.0277778
        k(   18) = (  -0.2500000   0.6666667  -0.4166667), wk =   0.0555556
        k(   19) = (  -0.3333333   0.6666667  -0.3333333), wk =   0.0092593
        k(   20) = (   0.0000000   0.0000000   0.1666667), wk =   0.0069444
        k(   21) = (   0.0000000  -0.0833333   0.2500000), wk =   0.0277778
        k(   22) = (   0.0000000  -0.1666667   0.3333333), wk =   0.0277778
        k(   23) = (   0.0000000  -0.2500000   0.4166667), wk =   0.0277778
        k(   24) = (   0.0000000  -0.3333333   0.5000000), wk =   0.0277778
        k(   25) = (   0.0000000   0.5833333  -0.4166667), wk =   0.0138889
        k(   26) = (  -0.0833333  -0.0833333   0.3333333), wk =   0.0277778
        k(   66) = (   0.0000000   0.0000000   0.6666667), wk =   0.0069444
        k(   67) = (   0.0000000  -0.0833333   0.7500000), wk =   0.0277778
        k(   68) = (   0.0000000   0.8333333  -0.1666667), wk =   0.0138889
        k(   69) = (  -0.0833333   0.9166667  -0.1666667), wk =   0.0277778
        k(   70) = (   0.0000000   0.0000000   0.8333333), wk =   0.0069444
        k(   71) = (   0.0000000   0.9166667  -0.0833333), wk =   0.0138889
        k(   72) = (   0.0000000   0.0000000  -1.0000000), wk =   0.0011574
        k(   27) = (  -0.0833333  -0.1666667   0.4166667), wk =   0.0555556
        k(   28) = (  -0.0833333  -0.2500000   0.5000000), wk =   0.0555556
        k(   29) = (  -0.0833333   0.6666667  -0.4166667), wk =   0.0555556
        k(   30) = (  -0.1666667   0.1666667   0.1666667), wk =   0.0092593
        k(   31) = (  -0.1666667  -0.1666667   0.5000000), wk =   0.0277778
        k(   32) = (  -0.1666667   0.7500000  -0.4166667), wk =   0.0555556

     Dense  grid:    21529 G-vectors     FFT dimensions: (  40,  40,  40)

        k(   33) = (  -0.1666667   0.6666667  -0.3333333), wk =   0.0277778
        k(   34) = (  -0.2500000   0.2500000   0.1666667), wk =   0.0277778
        k(   35) = (  -0.2500000   0.7500000  -0.3333333), wk =   0.0277778
        k(   36) = (  -0.3333333   0.3333333   0.1666667), wk =   0.0277778
     Smooth grid:     7707 G-vectors     FFT dimensions: (  27,  27,  27)
        k(   37) = (  -0.3333333   0.2500000   0.2500000), wk =   0.0277778
        k(   38) = (   0.5833333  -0.5833333   0.1666667), wk =   0.0277778
        k(   39) = (   0.5833333  -0.6666667   0.2500000), wk =   0.0555556
        k(   40) = (   0.5000000  -0.5000000   0.1666667), wk =   0.0138889
        k(   41) = (   0.5000000  -0.5833333   0.2500000), wk =   0.0555556
        k(   42) = (   0.5000000  -0.6666667   0.3333333), wk =   0.0277778
        k(   43) = (   0.4166667  -0.5833333   0.3333333), wk =   0.0277778
        k(   44) = (   0.0000000   0.0000000   0.3333333), wk =   0.0069444
        k(   45) = (   0.0000000  -0.0833333   0.4166667), wk =   0.0277778
        k(   46) = (   0.0000000  -0.1666667   0.5000000), wk =   0.0277778
        k(   47) = (   0.0000000  -0.2500000   0.5833333), wk =   0.0277778
        k(   48) = (   0.0000000   0.6666667  -0.3333333), wk =   0.0138889
        k(   49) = (  -0.0833333  -0.0833333   0.5000000), wk =   0.0277778
        k(   50) = (  -0.0833333  -0
     Estimated max dynamical RAM per process >      88.34 MB
.1666667   0.5833333), wk =   0.0555556
        k(   51) = (  -0.0833333   0.7500000  -0.3333333), wk =   0.0555556
        k(   52) = (  -0.1666667   0.8333333  -0.3333333), wk =   0.0277778
        k(   53) = (  -0.1666667   0.7500000  -0.2500000), wk =   0.0277778
        k(   54) = (   0.6666667  -0.6666667   0.3333333), wk =   0.0092593
        k(   55) = (   0.5833333  -0.5833333   0.3333333), wk =   0.0277778
        k(   56) = (   0.5000000  -0.5000000   0.3333333), wk =   0.0138889
        k(   57) = (   0.5000000  -0.5833333   0.4166667), wk =   0.0277778
        k(   58) = (   0.0000000   0.0000000   0.5000000), wk =   0.0069444
        k(   59) = (   0.0000000  -0.0833333   0.5833333), wk =   0.0277778
        k(   60) = (   0.0000000  -0.1666667   0.6666667), wk =   0.0277778
        k(   61) = (   0.0000000   0.7500000  -0.2500000), wk =   0.0138889
        k(   62) = (  -0.0833333  -0.0833333   0.6666667), wk =   0.0277778
        k(   63) = (  -0.0833333   0.8333333  -0.2500000), wk =   0.0555556
        k(   64) = (  -0.1666667   0.8333333  -0.1666667), wk =   0.0092593
        k(   65) = (   0.5000000  -0.5000000   0.5000000), wk =   0.0023148
        k(   66) = (   0.0000000   0.0000000   0.6666667), wk =   0.0069444
        k(   67) = (   0.0000000  -0.0833333   0.7500000), wk =   0.0277778
        k(   68) = (   0.0000000   0.8333333  -0.1666667), wk =   0.0138889
        k(   69) = (  -0.0833333   0.9166667  -0.1666667), wk =   0.0277778
        k(   70) = (   0.0000000   0.0000000   0.8333333), wk =   0.0069444
        k(   71) = (   0.0000000   0.9166667  -0.0833333), wk =   0.0138889
        k(   72) = (   0.0000000   0.0000000  -1.0000000), wk =   0.0011574

     Dense  grid:    21529 G-vectors     FFT dimensions: (  40,  40,  40)

     Smooth grid:     7707 G-vectors     FFT dimensions: (  27,  27,  27)

     Estimated max dynamical RAM per process >      88.34 MB

     Initial potential from superposition of free atoms

     Initial potential from superposition of free atoms

     Initial potential from superposition of free atoms

     starting charge      12.9973, renormalised to      13.0000

     starting charge      12.9973, renormalised to      13.0000

     starting charge      12.9973, renormalised to      13.0000

     Initial potential from superposition of free atoms

     starting charge      12.9973, renormalised to      13.0000
     Starting wfcs are   13 randomized atomic wfcs
     Starting wfcs are   13 randomized atomic wfcs
     Starting wfcs are   13 randomized atomic wfcs
     Starting wfcs are   13 randomized atomic wfcs

     total cpu time spent up to now is        0.5 secs

     Self-consistent Calculation

     iteration #  1     ecut=    60.00 Ry     beta= 0.70
     Davidson diagonalization with overlap

     total cpu time spent up to now is        0.5 secs

     Self-consistent Calculation

     iteration #  1     ecut=    60.00 Ry     beta= 0.70
     Davidson diagonalization with overlap

     total cpu time spent up to now is        0.5 secs

     Self-consistent Calculation

     iteration #  1     ecut=    60.00 Ry     beta= 0.70
     Davidson diagonalization with overlap

     total cpu time spent up to now is        0.5 secs

     Self-consistent Calculation

     iteration #  1     ecut=    60.00 Ry     beta= 0.70
     Davidson diagonalization with overlap
     ethr =  1.00E-02,  avg # of iterations =  3.5
     ethr =  1.00E-02,  avg # of iterations =  3.5
     ethr =  1.00E-02,  avg # of iterations =  3.5
     ethr =  1.00E-02,  avg # of iterations =  3.5

     Threshold (ethr) on eigenvalues was too large:
     Diagonalizing with lowered threshold

     Davidson diagonalization with overlap

     Threshold (ethr) on eigenvalues was too large:
     Diagonalizing with lowered threshold

     Davidson diagonalization with overlap

     Threshold (ethr) on eigenvalues was too large:
     Diagonalizing with lowered threshold

     Davidson diagonalization with overlap

     Threshold (ethr) on eigenvalues was too large:
     Diagonalizing with lowered threshold

     Davidson diagonalization with overlap
     ethr =  6.61E-04,  avg # of iterations =  1.0
     ethr =  6.61E-04,  avg # of iterations =  1.0
     ethr =  6.61E-04,  avg # of iterations =  1.0
     ethr =  6.61E-04,  avg # of iterations =  1.0

     total cpu time spent up to now is        1.7 secs

     total energy              =    -117.91284415 Ry
     estimated scf accuracy    <       0.08788040 Ry

     iteration #  2     ecut=    60.00 Ry     beta= 0.70
     Davidson diagonalization with overlap

     total cpu time spent up to now is        1.7 secs

     total energy              =    -117.91284415 Ry
     estimated scf accuracy    <       0.08788040 Ry

     iteration #  2     ecut=    60.00 Ry     beta= 0.70
     Davidson diagonalization with overlap

     total cpu time spent up to now is        1.8 secs

     total energy              =    -117.91284415 Ry
     estimated scf accuracy    <       0.08788040 Ry

     iteration #  2     ecut=    60.00 Ry     beta= 0.70
     Davidson diagonalization with overlap

     total cpu time spent up to now is        1.8 secs

     total energy              =    -117.91284415 Ry
     estimated scf accuracy    <       0.08788040 Ry

     iteration #  2     ecut=    60.00 Ry     beta= 0.70
     Davidson diagonalization with overlap
     ethr =  6.76E-04,  avg # of iterations =  2.0
     ethr =  6.76E-04,  avg # of iterations =  2.0
     ethr =  6.76E-04,  avg # of iterations =  2.0
     ethr =  6.76E-04,  avg # of iterations =  2.0

     total cpu time spent up to now is        2.4 secs

     total energy              =    -117.93271488 Ry
     estimated scf accuracy    <       0.00492646 Ry

     iteration #  3     ecut=    60.00 Ry     beta= 0.70
     Davidson diagonalization with overlap

     total cpu time spent up to now is        2.4 secs

     total energy              =    -117.93271488 Ry
     estimated scf accuracy    <       0.00492646 Ry

     iteration #  3     ecut=    60.00 Ry     beta= 0.70
     Davidson diagonalization with overlap

     total cpu time spent up to now is        2.5 secs

     total energy              =    -117.93271488 Ry
     estimated scf accuracy    <       0.00492646 Ry

     iteration #  3     ecut=    60.00 Ry     beta= 0.70
     Davidson diagonalization with overlap

     total cpu time spent up to now is        2.5 secs

     total energy              =    -117.93271488 Ry
     estimated scf accuracy    <       0.00492646 Ry

     iteration #  3     ecut=    60.00 Ry     beta= 0.70
     Davidson diagonalization with overlap
     ethr =  3.79E-05,  avg # of iterations =  2.7
     ethr =  3.79E-05,  avg # of iterations =  2.7
     ethr =  3.79E-05,  avg # of iterations =  2.7
     ethr =  3.79E-05,  avg # of iterations =  2.7

     total cpu time spent up to now is        3.1 secs

     total energy              =    -117.93347053 Ry
     estimated scf accuracy    <       0.00013795 Ry

     iteration #  4     ecut=    60.00 Ry     beta= 0.70
     Davidson diagonalization with overlap

     total cpu time spent up to now is        3.1 secs

     total energy              =    -117.93347053 Ry
     estimated scf accuracy    <       0.00013795 Ry

     iteration #  4     ecut=    60.00 Ry     beta= 0.70
     Davidson diagonalization with overlap

     total cpu time spent up to now is        3.2 secs

     total energy              =    -117.93347053 Ry
     estimated scf accuracy    <       0.00013795 Ry

     iteration #  4     ecut=    60.00 Ry     beta= 0.70
     Davidson diagonalization with overlap

     total cpu time spent up to now is        3.2 secs

     total energy              =    -117.93347053 Ry
     estimated scf accuracy    <       0.00013795 Ry

     iteration #  4     ecut=    60.00 Ry     beta= 0.70
     Davidson diagonalization with overlap
     ethr =  1.06E-06,  avg # of iterations =  3.7
     ethr =  1.06E-06,  avg # of iterations =  3.7
     ethr =  1.06E-06,  avg # of iterations =  3.7
     ethr =  1.06E-06,  avg # of iterations =  3.7

     total cpu time spent up to now is        3.8 secs

     total energy              =    -117.93348061 Ry
     estimated scf accuracy    <       0.00000637 Ry

     iteration #  5     ecut=    60.00 Ry     beta= 0.70
     Davidson diagonalization with overlap

     total cpu time spent up to now is        3.8 secs

     total energy              =    -117.93348061 Ry
     estimated scf accuracy    <       0.00000637 Ry

     iteration #  5     ecut=    60.00 Ry     beta= 0.70
     Davidson diagonalization with overlap

     total cpu time spent up to now is        3.8 secs

     total energy              =    -117.93348061 Ry
     estimated scf accuracy    <       0.00000637 Ry

     iteration #  5     ecut=    60.00 Ry     beta= 0.70
     Davidson diagonalization with overlap

     total cpu time spent up to now is        3.9 secs

     total energy              =    -117.93348061 Ry
     estimated scf accuracy    <       0.00000637 Ry

     iteration #  5     ecut=    60.00 Ry     beta= 0.70
     Davidson diagonalization with overlap
     ethr =  4.90E-08,  avg # of iterations =  2.1
     ethr =  4.90E-08,  avg # of iterations =  2.1
     ethr =  4.90E-08,  avg # of iterations =  2.1
     ethr =  4.90E-08,  avg # of iterations =  2.1

     total cpu time spent up to now is        4.5 secs

     total energy              =    -117.93348274 Ry
     estimated scf accuracy    <       0.00000220 Ry

     iteration #  6     ecut=    60.00 Ry     beta= 0.70
     Davidson diagonalization with overlap

     total cpu time spent up to now is        4.5 secs

     total energy              =    -117.93348274 Ry
     estimated scf accuracy    <       0.00000220 Ry

     iteration #  6     ecut=    60.00 Ry     beta= 0.70
     Davidson diagonalization with overlap

     total cpu time spent up to now is        4.6 secs

     total energy              =    -117.93348274 Ry
     estimated scf accuracy    <       0.00000220 Ry

     iteration #  6     ecut=    60.00 Ry     beta= 0.70
     Davidson diagonalization with overlap

     total cpu time spent up to now is        4.6 secs

     total energy              =    -117.93348274 Ry
     estimated scf accuracy    <       0.00000220 Ry

     iteration #  6     ecut=    60.00 Ry     beta= 0.70
     Davidson diagonalization with overlap
     ethr =  1.69E-08,  avg # of iterations =  2.0
     ethr =  1.69E-08,  avg # of iterations =  2.0
     ethr =  1.69E-08,  avg # of iterations =  2.0

     total cpu time spent up to now is        5.1 secs

     total energy              =    -117.93348312 Ry
     estimated scf accuracy    <          5.1E-09 Ry

     iteration #  7     ecut=    60.00 Ry     beta= 0.70
     Davidson diagonalization with overlap
     ethr =  1.69E-08,  avg # of iterations =  2.0

     total cpu time spent up to now is        5.2 secs

     total energy              =    -117.93348312 Ry
     estimated scf accuracy    <          5.1E-09 Ry

     iteration #  7     ecut=    60.00 Ry     beta= 0.70
     Davidson diagonalization with overlap

     total cpu time spent up to now is        5.3 secs

     total energy              =    -117.93348312 Ry
     estimated scf accuracy    <          5.1E-09 Ry

     iteration #  7     ecut=    60.00 Ry     beta= 0.70
     Davidson diagonalization with overlap

     total cpu time spent up to now is        5.3 secs

     total energy              =    -117.93348312 Ry
     estimated scf accuracy    <          5.1E-09 Ry

     iteration #  7     ecut=    60.00 Ry     beta= 0.70
     Davidson diagonalization with overlap
     ethr =  3.90E-11,  avg # of iterations =  3.7
     ethr =  3.90E-11,  avg # of iterations =  3.7
     ethr =  3.90E-11,  avg # of iterations =  3.7

     total cpu time spent up to now is        5.9 secs

     total energy              =    -117.93348313 Ry
     estimated scf accuracy    <          3.8E-09 Ry

     iteration #  8     ecut=    60.00 Ry     beta= 0.70
     Davidson diagonalization with overlap
     ethr =  3.90E-11,  avg # of iterations =  3.7

     total cpu time spent up to now is        6.0 secs

     total energy              =    -117.93348313 Ry
     estimated scf accuracy    <          3.8E-09 Ry

     iteration #  8     ecut=    60.00 Ry     beta= 0.70
     Davidson diagonalization with overlap

     total cpu time spent up to now is        6.1 secs

     total energy              =    -117.93348313 Ry
     estimated scf accuracy    <          3.8E-09 Ry

     iteration #  8     ecut=    60.00 Ry     beta= 0.70
     Davidson diagonalization with overlap

     total cpu time spent up to now is        6.1 secs

     total energy              =    -117.93348313 Ry
     estimated scf accuracy    <          3.8E-09 Ry

     iteration #  8     ecut=    60.00 Ry     beta= 0.70
     Davidson diagonalization with overlap
     ethr =  2.92E-11,  avg # of iterations =  2.0
     ethr =  2.92E-11,  avg # of iterations =  2.0

     total cpu time spent up to now is        6.5 secs

     total energy              =    -117.93348313 Ry
     estimated scf accuracy    <          2.9E-10 Ry

     iteration #  9     ecut=    60.00 Ry     beta= 0.70
     Davidson diagonalization with overlap
     ethr =  2.92E-11,  avg # of iterations =  2.0
     ethr =  2.92E-11,  avg # of iterations =  2.0

     total cpu time spent up to now is        6.7 secs

     total energy              =    -117.93348313 Ry
     estimated scf accuracy    <          2.9E-10 Ry

     iteration #  9     ecut=    60.00 Ry     beta= 0.70
     Davidson diagonalization with overlap

     total cpu time spent up to now is        6.7 secs

     total energy              =    -117.93348313 Ry
     estimated scf accuracy    <          2.9E-10 Ry

     iteration #  9     ecut=    60.00 Ry     beta= 0.70
     Davidson diagonalization with overlap

     total cpu time spent up to now is        6.7 secs

     total energy              =    -117.93348313 Ry
     estimated scf accuracy    <          2.9E-10 Ry

     iteration #  9     ecut=    60.00 Ry     beta= 0.70
     Davidson diagonalization with overlap
     ethr =  2.23E-12,  avg # of iterations =  3.5

     total cpu time spent up to now is        7.3 secs

     total energy              =    -117.93348313 Ry
     estimated scf accuracy    <          2.1E-09 Ry

     iteration # 10     ecut=    60.00 Ry     beta= 0.70
     Davidson diagonalization with overlap
     ethr =  2.23E-12,  avg # of iterations =  3.5
     ethr =  2.23E-12,  avg # of iterations =  3.5
     ethr =  2.23E-12,  avg # of iterations =  3.5

     total cpu time spent up to now is        7.4 secs

     total energy              =    -117.93348313 Ry
     estimated scf accuracy    <          2.1E-09 Ry

     iteration # 10     ecut=    60.00 Ry     beta= 0.70
     Davidson diagonalization with overlap

     total cpu time spent up to now is        7.4 secs

     total energy              =    -117.93348313 Ry
     estimated scf accuracy    <          2.1E-09 Ry

     iteration # 10     ecut=    60.00 Ry     beta= 0.70
     Davidson diagonalization with overlap

     total cpu time spent up to now is        7.5 secs

     total energy              =    -117.93348313 Ry
     estimated scf accuracy    <          2.1E-09 Ry

     iteration # 10     ecut=    60.00 Ry     beta= 0.70
     Davidson diagonalization with overlap
     ethr =  2.23E-12,  avg # of iterations =  3.0
     ethr =  2.23E-12,  avg # of iterations =  3.0
     ethr =  2.23E-12,  avg # of iterations =  3.0

     total cpu time spent up to now is        8.0 secs

     End of self-consistent calculation

          k = 0.0000 0.0000 0.0000 (   959 PWs)   bands (ev):

   -36.3318 -11.6359 -11.6359 -11.6359  12.1102  18.3910  18.3910  18.3910
    21.3083  21.3083  32.2198

          k = 0.0000-0.0833 0.0833 (   953 PWs)   bands (ev):

   -36.3155 -11.7346 -11.6659 -11.6367  12.3946  18.2164  18.3443  18.6657
    21.0539  21.3098  32.4473

          k = 0.0000-0.1667 0.1667 (   959 PWs)   bands (ev):

   -36.2706 -11.9984 -11.7470 -11.6390  13.1551  17.7775  18.1280  19.4662
    20.7221  21.3431  32.8098

          k = 0.0000-0.2500 0.2500 (   949 PWs)   bands (ev):

   -36.2087 -12.3460 -11.8558 -11.6422  14.0458  17.2487  17.9244  20.7166
    20.7916  21.4608  32.3766

          k = 0.0000-0.3333 0.3333 (   959 PWs)   bands (ev):

   -36.1460 -12.6806 -11.9625 -11.6455  14.4557  16.7806  18.4492  21.1188
    21.6761  22.2577  31.1488

          k = 0.0000-0.4167 0.4167 (   961 PWs)   bands (ev):

   -36.0997 -12.9182 -12.0393 -11.6480  14.3790  16.4680  19.6133  21.3632
    21.9155  23.7383  30.0603

          k = 0.0000 0.5000-0.5000 (   962 PWs)   bands (ev):

   -36.0826 -13.0038 -12.0672 -11.6490  14.2986  16.3589  20.3263  21.3439
    22.0264  24.4248  29.6391

          k =-0.0833-0.0833 0.1667 (   955 PWs)   bands (ev):

   -36.2849 -11.9158 -11.6992 -11.6605  12.9233  17.9884  18.0898  19.2528
    20.6960  21.3962  32.8605

          k =-0.0833-0.1667 0.2500 (   960 PWs)   bands (ev):

   -36.2315 -12.2091 -11.7972 -11.6725  13.8023  17.5138  17.7687  20.3286
    20.5173  21.5693  33.0821

          k =-0.0833-0.2500 0.3333 (   954 PWs)   bands (ev):

   -36.1691 -12.5320 -11.9208 -11.6783  14.5402  17.0135  17.7917  20.7124
    21.7479  21.8405  31.9990

          k =-0.0833-0.3333 0.4167 (   951 PWs)   bands (ev):

   -36.1145 -12.8019 -12.0276 -11.6826  14.6502  16.6384  18.6227  21.1079
    21.9799  23.4212  30.7435

          k =-0.0833 0.5833-0.5000 (   953 PWs)   bands (ev):

   -36.0827 -12.9543 -12.0887 -11.6850  14.5219  16.4398  19.5613  21.2590
    22.2563  24.6233  29.9641

          k =-0.1667-0.1667 0.3333 (   951 PWs)   bands (ev):

   -36.1775 -12.4597 -11.8952 -11.7199  14.6569  17.1717  17.3786  20.4313
    21.7099  21.9281  32.7628

          k =-0.1667-0.2500 0.4167 (   952 PWs)   bands (ev):

   -36.1231 -12.6832 -12.0384 -11.7421  15.1669  16.7895  17.6079  20.6981
    22.0492  23.4962  31.3781

          k =-0.1667 0.6667-0.5000 (   955 PWs)   bands (ev):

   -36.0828 -12.8348 -12.1574 -11.7520  15.1114  16.5998  18.3388  21.0630
    22.2182  25.1417  30.0370

          k =-0.1667 0.5833-0.4167 (   951 PWs)   bands (ev):

   -36.0680 -12.8882 -12.2028 -11.7550  15.0272  16.5395  18.7312  21.1552
    22.4101  25.9386  29.2817

          k =-0.2500 0.7500-0.5000 (   947 PWs)   bands (ev):

   -36.0829 -12.7566 -12.2145 -11.7811  15.5897  16.6338  17.6837  20.9540
    22.1204  25.4143  30.1057

          k =-0.2500 0.6667-0.4167 (   946 PWs)   bands (ev):

   -36.0596 -12.7586 -12.3634 -11.7967  15.6345  16.7003  17.8183  21.2983
    22.1516  27.1182  28.8175

          k =-0.3333 0.6667-0.3333 (   937 PWs)   bands (ev):

   -36.0511 -12.5868 -12.5868 -11.8099  15.8479  17.1638  17.1638  21.7856
    21.7856  28.2218  29.1129

          k = 0.0000 0.0000 0.1667 (   955 PWs)   bands (ev):

   -36.2995 -11.7699 -11.6963 -11.6963  12.6716  18.3435  18.3435  18.6481
    20.4894  21.5947  32.9974

          k = 0.0000-0.0833 0.2500 (   960 PWs)   bands (ev):

   -36.2555 -12.0051 -11.7784 -11.7148  13.4128  18.0104  18.1972  19.3660
    19.9092  21.8230  33.4533

          k = 0.0000-0.1667 0.3333 (   951 PWs)   bands (ev):

   -36.1947 -12.3392 -11.8886 -11.7158  14.2913  17.5091  17.8468  19.9987
    20.6164  22.0138  32.7002

          k = 0.0000-0.2500 0.4167 (   951 PWs)   bands (ev):

   -36.1333 -12.6628 -11.9966 -11.7153  14.7067  17.0582  18.0249  20.5346
    22.1689  22.2293  31.3333

          k = 0.0000-0.3333 0.5000 (   956 PWs)   bands (ev):

   -36.0878 -12.8930 -12.0743 -11.7148  14.6148  16.7553  18.7481  20.8564
    22.7482  23.6687  30.4041

          k = 0.0000 0.5833-0.4167 (   952 PWs)   bands (ev):

   -36.0711 -12.9759 -12.1025 -11.7146  14.5253  16.6494  19.1758  20.7929
    23.2073  24.3688  29.9431

          k =-0.0833-0.0833 0.3333 (   955 PWs)   bands (ev):

   -36.2041 -12.2339 -11.8719 -11.7704  14.2286  17.7698  17.9372  19.5132
    20.2288  22.1381  33.5054

          k =-0.0833-0.1667 0.4167 (   951 PWs)   bands (ev):

   -36.1442 -12.5184 -11.9976 -11.7843  14.9556  17.2198  17.7610  19.8335
    21.5829  22.4408  32.0382

          k =-0.0833-0.2500 0.5000 (   950 PWs)   bands (ev):

   -36.0917 -12.7632 -12.1093 -11.7859  15.0811  17.0212  17.8783  20.3825
    22.4101  23.6205  30.9068

          k =-0.0833 0.6667-0.4167 (   953 PWs)   bands (ev):

   -36.0612 -12.9026 -12.1733 -11.7854  14.9282  16.9288  18.2483  20.4867
    23.1175  24.9812  29.8579

          k =-0.1667 0.1667 0.1667 (   959 PWs)   bands (ev):

   -36.2449 -12.1669 -11.7072 -11.7072  13.6271  17.5741  17.5741  20.3513
    21.0822  21.0822  33.3384

          k =-0.1667-0.1667 0.5000 (   959 PWs)   bands (ev):

   -36.0931 -12.6799 -12.1554 -11.8166  15.5262  16.6639  17.8639  20.0953
    22.0972  23.7733  31.1692

          k =-0.1667 0.7500-0.4167 (   950 PWs)   bands (ev):

   -36.0555 -12.7822 -12.2980 -11.8254  15.6138  16.6751  17.7118  20.5884
    22.3611  25.6848  29.9078

          k =-0.1667 0.6667-0.3333 (   949 PWs)   bands (ev):

   -36.0417 -12.8155 -12.3554 -11.8270  15.5245  16.9187  17.5087  20.7351
    22.6847  26.8507  28.9973

          k =-0.2500 0.2500 0.1667 (   955 PWs)   bands (ev):

   -36.1897 -12.4432 -11.8303 -11.7183  14.5497  17.0631  17.2571  21.0272
    21.4363  21.8171  33.0413

          k =-0.2500 0.7500-0.3333 (   949 PWs)   bands (ev):

   -36.0345 -12.7086 -12.5031 -11.8372  16.1609  16.5212  17.1473  21.3019
    22.1135  27.8668  28.7826

          k =-0.3333 0.3333 0.1667 (   953 PWs)   bands (ev):

   -36.1340 -12.6881 -11.9768 -11.7294  15.0365  16.6626  17.6609  21.2311
    21.7343  23.4816  31.7041

          k =-0.3333 0.2500 0.2500 (   953 PWs)   bands (ev):

   -36.1411 -12.6356 -11.9272 -11.7900  15.4159  16.7721  16.9155  21.2112
    21.7274  23.5601  32.3257

          k = 0.5833-0.5833 0.1667 (   953 PWs)   bands (ev):

   -36.0928 -12.8553 -12.0914 -11.7377  14.9431  16.4121  18.7744  21.4554
    21.9654  24.9740  30.2929

          k = 0.5833-0.6667 0.2500 (   949 PWs)   bands (ev):

   -36.0987 -12.7529 -12.0901 -11.8217  15.6276  16.5331  17.5506  21.4302
    21.9781  25.3149  30.5749

          k = 0.5000-0.5000 0.1667 (   940 PWs)   bands (ev):

   -36.0777 -12.9145 -12.1344 -11.7407  14.8540  16.3271  19.3995  21.5194
    22.0594  25.6265  29.4486

          k = 0.5000-0.5833 0.2500 (   948 PWs)   bands (ev):

   -36.0741 -12.7977 -12.2116 -11.8350  15.4901  16.4197  18.4148  21.6210
    22.0987  26.5847  29.0016

          k = 0.5000-0.6667 0.3333 (   940 PWs)   bands (ev):

   -36.0728 -12.7150 -12.2732 -11.8782  15.8606  16.7308  17.6168  21.6512
    22.0825  27.0601  28.9443

          k = 0.4167-0.5833 0.3333 (   946 PWs)   bands (ev):

   -36.0634 -12.6473 -12.3993 -11.8944  15.8625  16.8561  17.7348  21.8141
    22.0606  28.1305  28.1692

          k = 0.0000 0.0000 0.3333 (   968 PWs)   bands (ev):

   -36.2138 -12.0779 -11.8633 -11.8633  14.0953  18.4223  18.4223  18.7354
    19.3949  22.2553  34.5778

          k = 0.0000-0.0833 0.4167 (   950 PWs)   bands (ev):

   -36.1564 -12.3288 -11.9771 -11.9049  14.9083  17.6017  18.2253  19.0540
    20.4096  22.5167  32.7981

          k = 0.0000-0.1667 0.5000 (   948 PWs)   bands (ev):

   -36.0983 -12.6148 -12.0886 -11.9014  15.3217  17.1371  17.8601  19.7589
    21.9480  22.8817  31.7079

          k = 0.0000-0.2500 0.5833 (   954 PWs)   bands (ev):

   -36.0554 -12.8233 -12.1688 -11.8939  15.1630  17.3872  17.5947  19.9691
    23.4852  23.9301  30.6039

          k = 0.0000 0.6667-0.3333 (   944 PWs)   bands (ev):

   -36.0396 -12.8990 -12.1978 -11.8908  15.0375  17.5001  17.6072  19.8750
    24.2191  24.8092  29.6611

          k =-0.0833-0.0833 0.5000 (   956 PWs)   bands (ev):

   -36.1007 -12.5123 -12.1118 -11.9631  15.5324  16.8206  18.4130  19.3275
    21.3862  22.8908  32.1410

          k =-0.0833-0.1667 0.5833 (   953 PWs)   bands (ev):

   -36.0521 -12.6998 -12.2381 -11.9670  15.6701  16.5173  18.1523  19.9267
    22.3764  24.1274  31.2654

          k =-0.0833 0.7500-0.3333 (   953 PWs)   bands (ev):

   -36.0238 -12.8122 -12.3102 -11.9627  15.4159  16.8172  17.8026  20.0942
    23.3319  25.8416  29.6606

          k =-0.1667 0.8333-0.3333 (   945 PWs)   bands (ev):

   -36.0180 -12.7276 -12.4182 -11.9761  15.9774  16.0993  17.7813  20.7743
    22.4674  26.2301  29.9101

          k =-0.1667 0.7500-0.2500 (   947 PWs)   bands (ev):

   -36.0055 -12.7146 -12.5109 -11.9752  15.8307  16.3318  17.4374  21.2259
    22.6005  27.9697  28.7421

          k = 0.6667-0.6667 0.3333 (   959 PWs)   bands (ev):

   -36.1045 -12.7189 -11.9591 -11.9591  16.4256  16.5471  16.5471  21.7484
    21.7484  25.4418  31.3448

          k = 0.5833-0.5833 0.3333 (   942 PWs)   bands (ev):

   -36.0777 -12.7066 -12.1596 -11.9824  16.2446  16.4461  17.4936  21.8635
    22.0380  27.0470  29.1475

          k = 0.5000-0.5000 0.3333 (   952 PWs)   bands (ev):

   -36.0678 -12.6693 -12.2664 -11.9910  16.1454  16.4195  17.9768  21.9237
    22.1265  27.8393  28.1576

          k = 0.5000-0.5833 0.4167 (   943 PWs)   bands (ev):

   -36.0655 -12.5617 -12.3158 -12.0811  16.3542  16.8677  17.3927  22.0462
    22.1214  27.8342  28.6988

          k = 0.0000 0.0000 0.5000 (   944 PWs)   bands (ev):

   -36.1035 -12.3739 -12.0957 -12.0957  15.5335  16.9350  18.9901  18.9901
    20.5467  22.7856  32.6837

          k = 0.0000-0.0833 0.5833 (   952 PWs)   bands (ev):

   -36.0501 -12.5552 -12.2118 -12.1418  15.7874  16.2290  19.0665  19.5682
    21.7320  23.2863  32.5191

          k = 0.0000-0.1667 0.6667 (   947 PWs)   bands (ev):

   -36.0107 -12.7271 -12.2951 -12.1314  15.4435  16.1876  18.9159  19.7979
    23.2515  24.7181  30.7957

          k = 0.0000 0.7500-0.2500 (   944 PWs)   bands (ev):

   -35.9962 -12.7920 -12.3253 -12.1247  15.2629  16.2343  18.8490  19.7779
    24.0221  26.0722  29.1900

          k =-0.0833-0.0833 0.6667 (   946 PWs)   bands (ev):

   -36.0059 -12.6430 -12.3553 -12.1814  15.6222  15.7867  19.1449  20.3812
    22.4478  24.5088  31.5673

          k =-0.0833 0.8333-0.2500 (   945 PWs)   bands (ev):

   -35.9803 -12.7079 -12.4494 -12.1756  15.3107  15.7126  18.9538  20.9245
    23.2312  26.5217  29.4467

          k =-0.1667 0.8333-0.1667 (   946 PWs)   bands (ev):

   -35.9691 -12.6119 -12.6119 -12.1742  15.3966  15.3966  18.8228  22.3803
    22.3803  28.6860  28.7934

          k = 0.5000-0.5000 0.5000 (   952 PWs)   bands (ev):

   -36.0629 -12.3314 -12.3314 -12.3314  16.9316  16.9316  16.9316  22.1606
    22.1606  27.5168  29.9798

          k = 0.0000 0.0000 0.6667 (   948 PWs)   bands (ev):

   -36.0015 -12.5374 -12.3321 -12.3321  15.4994  15.6566  20.2374  20.2374
    21.9159  23.7937  32.9137

          k = 0.0000-0.0833 0.7500 (   953 PWs)   bands (ev):

   -35.9657 -12.6306 -12.4185 -12.3602  15.0493  15.3241  20.5747  20.8106
    23.0563  25.1631  30.5193

          k = 0.0000 0.8333-0.1667 (   950 PWs)   bands (ev):

   -35.9525 -12.6829 -12.4498 -12.3514  14.8998  15.1785  20.5857  20.9422
    23.8328  26.7920  28.5554

          k =-0.0833 0.9167-0.1667 (   946 PWs)   bands (ev):

   -35.9423 -12.6273 -12.5354 -12.3761  14.7995  14.9316  20.6807  22.1914
    23.2801  26.8349  28.9905

          k = 0.0000 0.0000 0.8333 (   948 PWs)   bands (ev):

   -35.9325 -12.5752 -12.5071 -12.5071  14.5944  14.7552  22.1195  22.1195
    23.1349  25.8386  29.2719

          k = 0.0000 0.9167-0.0833 (   942 PWs)   bands (ev):

   -35.9203 -12.6016 -12.5392 -12.5131  14.4602  14.5137  22.4843  22.6466
    23.6987  27.0644  27.7225

          k = 0.0000 0.0000-1.0000 (   976 PWs)   bands (ev):

   -35.9085 -12.5715 -12.5715 -12.5715  14.2866  14.2866  23.6505  23.6505
    23.6505  27.1206  27.1206

     the Fermi energy is    18.0005 ev

!    total energy              =    -117.93348313 Ry
     estimated scf accuracy    <          1.6E-12 Ry
     smearing contrib. (-TS)   =       0.00081761 Ry
     internal energy E=F+TS    =    -117.93430074 Ry

     The total energy is F=E-TS. E is the sum of the following terms:
     one-electron contribution =     -15.73397069 Ry
     hartree contribution      =      14.88962582 Ry
     xc contribution           =     -18.44834353 Ry
     ewald contribution        =     -98.64161234 Ry

     convergence has been achieved in  10 iterations

     Writing all to output data dir ./tmp/Nb_ecut60.save/

     init_run     :      0.43s CPU      0.45s WALL (       1 calls)
     electrons    :      7.21s CPU      7.52s WALL (       1 calls)

     Called by init_run:
     wfcinit      :      0.25s CPU      0.26s WALL (       1 calls)
     potinit      :      0.02s CPU      0.02s WALL (       1 calls)
     hinit0       :      0.14s CPU      0.14s WALL (       1 calls)

     Called by electrons:
     c_bands      :      5.63s CPU      5.83s WALL (      11 calls)
     sum_band     :      1.28s CPU      1.34s WALL (      11 calls)
     v_of_rho     :      0.13s CPU      0.14s WALL (      11 calls)
     newd         :      0.17s CPU      0.22s WALL (      11 calls)
     mix_rho      :      0.01s CPU      0.01s WALL (      11 calls)

     Called by c_bands:
     init_us_2    :      0.17s CPU      0.17s WALL (    1656 calls)
     init_us_2:cp :      0.17s CPU      0.17s WALL (    1656 calls)
     cegterg      :      5.38s CPU      5.56s WALL (     792 calls)

     Called by *egterg:
     cdiaghg      :      0.18s CPU      0.19s WALL (    2824 calls)
     h_psi        :      4.66s CPU      4.79s WALL (    2968 calls)
     s_psi        :      0.12s CPU      0.12s WALL (    2968 calls)
     g_psi        :      0.02s CPU      0.02s WALL (    2104 calls)

     Called by h_psi:
     h_psi:calbec :      0.13s CPU      0.14s WALL (    2968 calls)
     vloc_psi     :      4.39s CPU      4.51s WALL (    2968 calls)
     add_vuspsi   :      0.12s CPU      0.12s WALL (    2968 calls)

     General routines
     calbec       :      0.18s CPU      0.19s WALL (    3760 calls)
     fft          :      0.06s CPU      0.06s WALL (     142 calls)
     ffts         :      0.00s CPU      0.00s WALL (      22 calls)
     fftw         :      4.25s CPU      4.35s WALL (   54300 calls)
     interpolate  :      0.01s CPU      0.01s WALL (      11 calls)


     PWSCF        :      7.70s CPU      8.05s WALL


   This run was terminated on:  21: 7:10   6Mar2026            

=------------------------------------------------------------------------------=
   JOB DONE.
=------------------------------------------------------------------------------=
Note: The following floating-point exceptions are signalling: IEEE_INVALID_FLAG IEEE_DIVIDE_BY_ZERO IEEE_UNDERFLOW_FLAG
     ethr =  2.23E-12,  avg # of iterations =  3.0

     total cpu time spent up to now is        8.1 secs

     End of self-consistent calculation

          k = 0.0000 0.0000 0.0000 (   959 PWs)   bands (ev):

   -36.3318 -11.6359 -11.6359 -11.6359  12.1102  18.3910  18.3910  18.3910
    21.3083  21.3083  32.2198

          k = 0.0000-0.0833 0.0833 (   953 PWs)   bands (ev):

   -36.3155 -11.7346 -11.6659 -11.6367  12.3946  18.2164  18.3443  18.6657
    21.0539  21.3098  32.4473

          k = 0.0000-0.1667 0.1667 (   959 PWs)   bands (ev):

   -36.2706 -11.9984 -11.7470 -11.6390  13.1551  17.7775  18.1280  19.4662
    20.7221  21.3431  32.8098

          k = 0.0000-0.2500 0.2500 (   949 PWs)   bands (ev):

   -36.2087 -12.3460 -11.8558 -11.6422  14.0458  17.2487  17.9244  20.7166
    20.7916  21.4608  32.3766

          k = 0.0000-0.3333 0.3333 (   959 PWs)   bands (ev):

   -36.1460 -12.6806 -11.9625 -11.6455  14.4557  16.7806  18.4492  21.1188
    21.6761  22.2577  31.1488

          k = 0.0000-0.4167 0.4167 (   961 PWs)   bands (ev):

   -36.0997 -12.9182 -12.0393 -11.6480  14.3790  16.4680  19.6133  21.3632
    21.9155  23.7383  30.0603

          k = 0.0000 0.5000-0.5000 (   962 PWs)   bands (ev):

   -36.0826 -13.0038 -12.0672 -11.6490  14.2986  16.3589  20.3263  21.3439
    22.0264  24.4248  29.6391

          k =-0.0833-0.0833 0.1667 (   955 PWs)   bands (ev):

   -36.2849 -11.9158 -11.6992 -11.6605  12.9233  17.9884  18.0898  19.2528
    20.6960  21.3962  32.8605

          k =-0.0833-0.1667 0.2500 (   960 PWs)   bands (ev):

   -36.2315 -12.2091 -11.7972 -11.6725  13.8023  17.5138  17.7687  20.3286
    20.5173  21.5693  33.0821

          k =-0.0833-0.2500 0.3333 (   954 PWs)   bands (ev):

   -36.1691 -12.5320 -11.9208 -11.6783  14.5402  17.0135  17.7917  20.7124
    21.7479  21.8405  31.9990

          k =-0.0833-0.3333 0.4167 (   951 PWs)   bands (ev):

   -36.1145 -12.8019 -12.0276 -11.6826  14.6502  16.6384  18.6227  21.1079
    21.9799  23.4212  30.7435

          k =-0.0833 0.5833-0.5000 (   953 PWs)   bands (ev):

   -36.0827 -12.9543 -12.0887 -11.6850  14.5219  16.4398  19.5613  21.2590
    22.2563  24.6233  29.9641

          k =-0.1667-0.1667 0.3333 (   951 PWs)   bands (ev):

   -36.1775 -12.4597 -11.8952 -11.7199  14.6569  17.1717  17.3786  20.4313
    21.7099  21.9281  32.7628

          k =-0.1667-0.2500 0.4167 (   952 PWs)   bands (ev):

   -36.1231 -12.6832 -12.0384 -11.7421  15.1669  16.7895  17.6079  20.6981
    22.0492  23.4962  31.3781

          k =-0.1667 0.6667-0.5000 (   955 PWs)   bands (ev):

   -36.0828 -12.8348 -12.1574 -11.7520  15.1114  16.5998  18.3388  21.0630
    22.2182  25.1417  30.0370

          k =-0.1667 0.5833-0.4167 (   951 PWs)   bands (ev):

   -36.0680 -12.8882 -12.2028 -11.7550  15.0272  16.5395  18.7312  21.1552
    22.4101  25.9386  29.2817

          k =-0.2500 0.7500-0.5000 (   947 PWs)   bands (ev):

   -36.0829 -12.7566 -12.2145 -11.7811  15.5897  16.6338  17.6837  20.9540
    22.1204  25.4143  30.1057

          k =-0.2500 0.6667-0.4167 (   946 PWs)   bands (ev):

   -36.0596 -12.7586 -12.3634 -11.7967  15.6345  16.7003  17.8183  21.2983
    22.1516  27.1182  28.8175

          k =-0.3333 0.6667-0.3333 (   937 PWs)   bands (ev):

   -36.0511 -12.5868 -12.5868 -11.8099  15.8479  17.1638  17.1638  21.7856
    21.7856  28.2218  29.1129

          k = 0.0000 0.0000 0.1667 (   955 PWs)   bands (ev):

   -36.2995 -11.7699 -11.6963 -11.6963  12.6716  18.3435  18.3435  18.6481
    20.4894  21.5947  32.9974

          k = 0.0000-0.0833 0.2500 (   960 PWs)   bands (ev):

   -36.2555 -12.0051 -11.7784 -11.7148  13.4128  18.0104  18.1972  19.3660
    19.9092  21.8230  33.4533

          k = 0.0000-0.1667 0.3333 (   951 PWs)   bands (ev):

   -36.1947 -12.3392 -11.8886 -11.7158  14.2913  17.5091  17.8468  19.9987
    20.6164  22.0138  32.7002

          k = 0.0000-0.2500 0.4167 (   951 PWs)   bands (ev):

   -36.1333 -12.6628 -11.9966 -11.7153  14.7067  17.0582  18.0249  20.5346
    22.1689  22.2293  31.3333

          k = 0.0000-0.3333 0.5000 (   956 PWs)   bands (ev):

   -36.0878 -12.8930 -12.0743 -11.7148  14.6148  16.7553  18.7481  20.8564
    22.7482  23.6687  30.4041

          k = 0.0000 0.5833-0.4167 (   952 PWs)   bands (ev):

   -36.0711 -12.9759 -12.1025 -11.7146  14.5253  16.6494  19.1758  20.7929
    23.2073  24.3688  29.9431

          k =-0.0833-0.0833 0.3333 (   955 PWs)   bands (ev):

   -36.2041 -12.2339 -11.8719 -11.7704  14.2286  17.7698  17.9372  19.5132
    20.2288  22.1381  33.5054

          k =-0.0833-0.1667 0.4167 (   951 PWs)   bands (ev):

   -36.1442 -12.5184 -11.9976 -11.7843  14.9556  17.2198  17.7610  19.8335
    21.5829  22.4408  32.0382

          k =-0.0833-0.2500 0.5000 (   950 PWs)   bands (ev):

   -36.0917 -12.7632 -12.1093 -11.7859  15.0811  17.0212  17.8783  20.3825
    22.4101  23.6205  30.9068

          k =-0.0833 0.6667-0.4167 (   953 PWs)   bands (ev):

   -36.0612 -12.9026 -12.1733 -11.7854  14.9282  16.9288  18.2483  20.4867
    23.1175  24.9812  29.8579

          k =-0.1667 0.1667 0.1667 (   959 PWs)   bands (ev):

   -36.2449 -12.1669 -11.7072 -11.7072  13.6271  17.5741  17.5741  20.3513
    21.0822  21.0822  33.3384

          k =-0.1667-0.1667 0.5000 (   959 PWs)   bands (ev):

   -36.0931 -12.6799 -12.1554 -11.8166  15.5262  16.6639  17.8639  20.0953
    22.0972  23.7733  31.1692

          k =-0.1667 0.7500-0.4167 (   950 PWs)   bands (ev):

   -36.0555 -12.7822 -12.2980 -11.8254  15.6138  16.6751  17.7118  20.5884
    22.3611  25.6848  29.9078

          k =-0.1667 0.6667-0.3333 (   949 PWs)   bands (ev):

   -36.0417 -12.8155 -12.3554 -11.8270  15.5245  16.9187  17.5087  20.7351
    22.6847  26.8507  28.9973

          k =-0.2500 0.2500 0.1667 (   955 PWs)   bands (ev):

   -36.1897 -12.4432 -11.8303 -11.7183  14.5497  17.0631  17.2571  21.0272
    21.4363  21.8171  33.0413

          k =-0.2500 0.7500-0.3333 (   949 PWs)   bands (ev):

   -36.0345 -12.7086 -12.5031 -11.8372  16.1609  16.5212  17.1473  21.3019
    22.1135  27.8668  28.7826

          k =-0.3333 0.3333 0.1667 (   953 PWs)   bands (ev):

   -36.1340 -12.6881 -11.9768 -11.7294  15.0365  16.6626  17.6609  21.2311
    21.7343  23.4816  31.7041

          k =-0.3333 0.2500 0.2500 (   953 PWs)   bands (ev):

   -36.1411 -12.6356 -11.9272 -11.7900  15.4159  16.7721  16.9155  21.2112
    21.7274  23.5601  32.3257

          k = 0.5833-0.5833 0.1667 (   953 PWs)   bands (ev):

   -36.0928 -12.8553 -12.0914 -11.7377  14.9431  16.4121  18.7744  21.4554
    21.9654  24.9740  30.2929

          k = 0.5833-0.6667 0.2500 (   949 PWs)   bands (ev):

   -36.0987 -12.7529 -12.0901 -11.8217  15.6276  16.5331  17.5506  21.4302
    21.9781  25.3149  30.5749

          k = 0.5000-0.5000 0.1667 (   940 PWs)   bands (ev):

   -36.0777 -12.9145 -12.1344 -11.7407  14.8540  16.3271  19.3995  21.5194
    22.0594  25.6265  29.4486

          k = 0.5000-0.5833 0.2500 (   948 PWs)   bands (ev):

   -36.0741 -12.7977 -12.2116 -11.8350  15.4901  16.4197  18.4148  21.6210
    22.0987  26.5847  29.0016

          k = 0.5000-0.6667 0.3333 (   940 PWs)   bands (ev):

   -36.0728 -12.7150 -12.2732 -11.8782  15.8606  16.7308  17.6168  21.6512
    22.0825  27.0601  28.9443

          k = 0.4167-0.5833 0.3333 (   946 PWs)   bands (ev):

   -36.0634 -12.6473 -12.3993 -11.8944  15.8625  16.8561  17.7348  21.8141
    22.0606  28.1305  28.1692

          k = 0.0000 0.0000 0.3333 (   968 PWs)   bands (ev):

   -36.2138 -12.0779 -11.8633 -11.8633  14.0953  18.4223  18.4223  18.7354
    19.3949  22.2553  34.5778

          k = 0.0000-0.0833 0.4167 (   950 PWs)   bands (ev):

   -36.1564 -12.3288 -11.9771 -11.9049  14.9083  17.6017  18.2253  19.0540
    20.4096  22.5167  32.7981

          k = 0.0000-0.1667 0.5000 (   948 PWs)   bands (ev):

   -36.0983 -12.6148 -12.0886 -11.9014  15.3217  17.1371  17.8601  19.7589
    21.9480  22.8817  31.7079

          k = 0.0000-0.2500 0.5833 (   954 PWs)   bands (ev):

   -36.0554 -12.8233 -12.1688 -11.8939  15.1630  17.3872  17.5947  19.9691
    23.4852  23.9301  30.6039

          k = 0.0000 0.6667-0.3333 (   944 PWs)   bands (ev):

   -36.0396 -12.8990 -12.1978 -11.8908  15.0375  17.5001  17.6072  19.8750
    24.2191  24.8092  29.6611

          k =-0.0833-0.0833 0.5000 (   956 PWs)   bands (ev):

   -36.1007 -12.5123 -12.1118 -11.9631  15.5324  16.8206  18.4130  19.3275
    21.3862  22.8908  32.1410

          k =-0.0833-0.1667 0.5833 (   953 PWs)   bands (ev):

   -36.0521 -12.6998 -12.2381 -11.9670  15.6701  16.5173  18.1523  19.9267
    22.3764  24.1274  31.2654

          k =-0.0833 0.7500-0.3333 (   953 PWs)   bands (ev):

   -36.0238 -12.8122 -12.3102 -11.9627  15.4159  16.8172  17.8026  20.0942
    23.3319  25.8416  29.6606

          k =-0.1667 0.8333-0.3333 (   945 PWs)   bands (ev):

   -36.0180 -12.7276 -12.4182 -11.9761  15.9774  16.0993  17.7813  20.7743
    22.4674  26.2301  29.9101

          k =-0.1667 0.7500-0.2500 (   947 PWs)   bands (ev):

   -36.0055 -12.7146 -12.5109 -11.9752  15.8307  16.3318  17.4374  21.2259
    22.6005  27.9697  28.7421

          k = 0.6667-0.6667 0.3333 (   959 PWs)   bands (ev):

   -36.1045 -12.7189 -11.9591 -11.9591  16.4256  16.5471  16.5471  21.7484
    21.7484  25.4418  31.3448

          k = 0.5833-0.5833 0.3333 (   942 PWs)   bands (ev):

   -36.0777 -12.7066 -12.1596 -11.9824  16.2446  16.4461  17.4936  21.8635
    22.0380  27.0470  29.1475

          k = 0.5000-0.5000 0.3333 (   952 PWs)   bands (ev):

   -36.0678 -12.6693 -12.2664 -11.9910  16.1454  16.4195  17.9768  21.9237
    22.1265  27.8393  28.1576

          k = 0.5000-0.5833 0.4167 (   943 PWs)   bands (ev):

   -36.0655 -12.5617 -12.3158 -12.0811  16.3542  16.8677  17.3927  22.0462
    22.1214  27.8342  28.6988

          k = 0.0000 0.0000 0.5000 (   944 PWs)   bands (ev):

   -36.1035 -12.3739 -12.0957 -12.0957  15.5335  16.9350  18.9901  18.9901
    20.5467  22.7856  32.6837

          k = 0.0000-0.0833 0.5833 (   952 PWs)   bands (ev):

   -36.0501 -12.5552 -12.2118 -12.1418  15.7874  16.2290  19.0665  19.5682
    21.7320  23.2863  32.5191

          k = 0.0000-0.1667 0.6667 (   947 PWs)   bands (ev):

   -36.0107 -12.7271 -12.2951 -12.1314  15.4435  16.1876  18.9159  19.7979
    23.2515  24.7181  30.7957

          k = 0.0000 0.7500-0.2500 (   944 PWs)   bands (ev):

   -35.9962 -12.7920 -12.3253 -12.1247  15.2629  16.2343  18.8490  19.7779
    24.0221  26.0722  29.1900

          k =-0.0833-0.0833 0.6667 (   946 PWs)   bands (ev):

   -36.0059 -12.6430 -12.3553 -12.1814  15.6222  15.7867  19.1449  20.3812
    22.4478  24.5088  31.5673

          k =-0.0833 0.8333-0.2500 (   945 PWs)   bands (ev):

   -35.9803 -12.7079 -12.4494 -12.1756  15.3107  15.7126  18.9538  20.9245
    23.2312  26.5217  29.4467

          k =-0.1667 0.8333-0.1667 (   946 PWs)   bands (ev):

   -35.9691 -12.6119 -12.6119 -12.1742  15.3966  15.3966  18.8228  22.3803
    22.3803  28.6860  28.7934

          k = 0.5000-0.5000 0.5000 (   952 PWs)   bands (ev):

   -36.0629 -12.3314 -12.3314 -12.3314  16.9316  16.9316  16.9316  22.1606
    22.1606  27.5168  29.9798

          k = 0.0000 0.0000 0.6667 (   948 PWs)   bands (ev):

   -36.0015 -12.5374 -12.3321 -12.3321  15.4994  15.6566  20.2374  20.2374
    21.9159  23.7937  32.9137

          k = 0.0000-0.0833 0.7500 (   953 PWs)   bands (ev):

   -35.9657 -12.6306 -12.4185 -12.3602  15.0493  15.3241  20.5747  20.8106
    23.0563  25.1631  30.5193

          k = 0.0000 0.8333-0.1667 (   950 PWs)   bands (ev):

   -35.9525 -12.6829 -12.4498 -12.3514  14.8998  15.1785  20.5857  20.9422
    23.8328  26.7920  28.5554

          k =-0.0833 0.9167-0.1667 (   946 PWs)   bands (ev):

   -35.9423 -12.6273 -12.5354 -12.3761  14.7995  14.9316  20.6807  22.1914
    23.2801  26.8349  28.9905

          k = 0.0000 0.0000 0.8333 (   948 PWs)   bands (ev):

   -35.9325 -12.5752 -12.5071 -12.5071  14.5944  14.7552  22.1195  22.1195
    23.1349  25.8386  29.2719

          k = 0.0000 0.9167-0.0833 (   942 PWs)   bands (ev):

   -35.9203 -12.6016 -12.5392 -12.5131  14.4602  14.5137  22.4843  22.6466
    23.6987  27.0644  27.7225

          k = 0.0000 0.0000-1.0000 (   976 PWs)   bands (ev):

   -35.9085 -12.5715 -12.5715 -12.5715  14.2866  14.2866  23.6505  23.6505
    23.6505  27.1206  27.1206

     the Fermi energy is    18.0005 ev

!    total energy              =    -117.93348313 Ry
     estimated scf accuracy    <          1.6E-12 Ry
     smearing contrib. (-TS)   =       0.00081761 Ry
     internal energy E=F+TS    =    -117.93430074 Ry

     The total energy is F=E-TS. E is the sum of the following terms:
     one-electron contribution =     -15.73397069 Ry
     hartree contribution      =      14.88962582 Ry
     xc contribution           =     -18.44834353 Ry
     ewald contribution        =     -98.64161234 Ry

     convergence has been achieved in  10 iterations

     Writing all to output data dir ./tmp/Nb_ecut60.save/

     init_run     :      0.43s CPU      0.45s WALL (       1 calls)
     electrons    :      7.24s CPU      7.64s WALL (       1 calls)

     Called by init_run:
     wfcinit      :      0.25s CPU      0.26s WALL (       1 calls)
     potinit      :      0.02s CPU      0.02s WALL (       1 calls)
     hinit0       :      0.14s CPU      0.14s WALL (       1 calls)

     Called by electrons:
     c_bands      :      5.65s CPU      5.89s WALL (      11 calls)
     sum_band     :      1.29s CPU      1.39s WALL (      11 calls)
     v_of_rho     :      0.13s CPU      0.14s WALL (      11 calls)
     newd         :      0.17s CPU      0.22s WALL (      11 calls)
     mix_rho      :      0.01s CPU      0.01s WALL (      11 calls)

     Called by c_bands:
     init_us_2    :      0.17s CPU      0.18s WALL (    1656 calls)
     init_us_2:cp :      0.17s CPU      0.17s WALL (    1656 calls)
     cegterg      :      5.39s CPU      5.62s WALL (     792 calls)

     Called by *egterg:
     cdiaghg      :      0.18s CPU      0.19s WALL (    2824 calls)
[...]
    24.0221  26.0722  29.1900

          k =-0.0833-0.0833 0.6667 (   946 PWs)   bands (ev):

   -36.0059 -12.6430 -12.3553 -12.1814  15.6222  15.7867  19.1449  20.3812
    22.4478  24.5088  31.5673

          k =-0.0833 0.8333-0.2500 (   945 PWs)   bands (ev):

   -35.9803 -12.7079 -12.4494 -12.1756  15.3107  15.7126  18.9538  20.9245
    23.2312  26.5217  29.4467

          k =-0.1667 0.8333-0.1667 (   946 PWs)   bands (ev):

   -35.9691 -12.6119 -12.6119 -12.1742  15.3966  15.3966  18.8228  22.3803
    22.3803  28.6860  28.7934

          k = 0.5000-0.5000 0.5000 (   952 PWs)   bands (ev):

   -36.0629 -12.3314 -12.3314 -12.3314  16.9316  16.9316  16.9316  22.1606
    22.1606  27.5168  29.9798

          k = 0.0000 0.0000 0.6667 (   948 PWs)   bands (ev):

   -36.0015 -12.5374 -12.3321 -12.3321  15.4994  15.6566  20.2374  20.2374
    21.9159  23.7937  32.9137

          k = 0.0000-0.0833 0.7500 (   953 PWs)   bands (ev):

   -35.9657 -12.6306 -12.4185 -12.3602  15.0493  15.3241  20.5747  20.8106
    23.0563  25.1631  30.5193

          k = 0.0000 0.8333-0.1667 (   950 PWs)   bands (ev):

   -35.9525 -12.6829 -12.4498 -12.3514  14.8998  15.1785  20.5857  20.9422
    23.8328  26.7920  28.5554

          k =-0.0833 0.9167-0.1667 (   946 PWs)   bands (ev):

   -35.9423 -12.6273 -12.5354 -12.3761  14.7995  14.9316  20.6807  22.1914
    23.2801  26.8349  28.9905

          k = 0.0000 0.0000 0.8333 (   948 PWs)   bands (ev):

   -35.9325 -12.5752 -12.5071 -12.5071  14.5944  14.7552  22.1195  22.1195
    23.1349  25.8386  29.2719

          k = 0.0000 0.9167-0.0833 (   942 PWs)   bands (ev):

   -35.9203 -12.6016 -12.5392 -12.5131  14.4602  14.5137  22.4843  22.6466
    23.6987  27.0644  27.7225

          k = 0.0000 0.0000-1.0000 (   976 PWs)   bands (ev):

   -35.9085 -12.5715 -12.5715 -12.5715  14.2866  14.2866  23.6505  23.6505
    23.6505  27.1206  27.1206

     the Fermi energy is    18.0005 ev

!    total energy              =    -117.93348313 Ry
     estimated scf accuracy    <          1.6E-12 Ry
     smearing contrib. (-TS)   =       0.00081761 Ry
     internal energy E=F+TS    =    -117.93430074 Ry

     The total energy is F=E-TS. E is the sum of the following terms:
     one-electron contribution =     -15.73397069 Ry
     hartree contribution      =      14.88962582 Ry
     xc contribution           =     -18.44834353 Ry
     ewald contribution        =     -98.64161234 Ry

     convergence has been achieved in  10 iterations

     Writing all to output data dir ./tmp/Nb_ecut60.save/

     init_run     :      0.43s CPU      0.45s WALL (       1 calls)
     electrons    :      7.27s CPU      7.67s WALL (       1 calls)

     Called by init_run:
     wfcinit      :      0.25s CPU      0.26s WALL (       1 calls)
     potinit      :      0.02s CPU      0.02s WALL (       1 calls)
     hinit0       :      0.14s CPU      0.14s WALL (       1 calls)

     Called by electrons:
     c_bands      :      5.67s CPU      5.93s WALL (      11 calls)
     sum_band     :      1.30s CPU      1.38s WALL (      11 calls)
     v_of_rho     :      0.13s CPU      0.14s WALL (      11 calls)
     newd         :      0.18s CPU      0.23s WALL (      11 calls)
     mix_rho      :      0.01s CPU      0.01s WALL (      11 calls)

     Called by c_bands:
     init_us_2    :      0.17s CPU      0.18s WALL (    1656 calls)
     init_us_2:cp :      0.17s CPU      0.17s WALL (    1656 calls)
     cegterg      :      5.41s CPU      5.66s WALL (     792 calls)

     Called by *egterg:
     cdiaghg      :      0.18s CPU      0.19s WALL (    2824 calls)
     h_psi        :      4.68s CPU      4.87s WALL (    2968 calls)
     s_psi        :      0.12s CPU      0.12s WALL (    2968 calls)
     g_psi        :      0.02s CPU      0.02s WALL (    2104 calls)

     Called by h_psi:
     h_psi:calbec :      0.14s CPU      0.14s WALL (    2968 calls)
     vloc_psi     :      4.41s CPU      4.58s WALL (    2968 calls)
     add_vuspsi   :      0.12s CPU      0.13s WALL (    2968 calls)

     General routines
     calbec       :      0.18s CPU      0.19s WALL (    3760 calls)
     fft          :      0.06s CPU      0.06s WALL (     142 calls)
     ffts         :      0.00s CPU      0.00s WALL (      22 calls)
     fftw         :      4.27s CPU      4.42s WALL (   54300 calls)
     interpolate  :      0.01s CPU      0.01s WALL (      11 calls)


     PWSCF        :      7.76s CPU      8.19s WALL


   This run was terminated on:  21: 7:10   6Mar2026            

=------------------------------------------------------------------------------=
   JOB DONE.
=------------------------------------------------------------------------------=
Note: The following floating-point exceptions are signalling: IEEE_INVALID_FLAG IEEE_DIVIDE_BY_ZERO IEEE_UNDERFLOW_FLAG

     total cpu time spent up to now is        8.3 secs

     End of self-consistent calculation

          k = 0.0000 0.0000 0.0000 (   959 PWs)   bands (ev):

   -36.3318 -11.6359 -11.6359 -11.6359  12.1102  18.3910  18.3910  18.3910
    21.3083  21.3083  32.2198

          k = 0.0000-0.0833 0.0833 (   953 PWs)   bands (ev):

   -36.3155 -11.7346 -11.6659 -11.6367  12.3946  18.2164  18.3443  18.6657
    21.0539  21.3098  32.4473

          k = 0.0000-0.1667 0.1667 (   959 PWs)   bands (ev):

   -36.2706 -11.9984 -11.7470 -11.6390  13.1551  17.7775  18.1280  19.4662
    20.7221  21.3431  32.8098

          k = 0.0000-0.2500 0.2500 (   949 PWs)   bands (ev):

   -36.2087 -12.3460 -11.8558 -11.6422  14.0458  17.2487  17.9244  20.7166
    20.7916  21.4608  32.3766

          k = 0.0000-0.3333 0.3333 (   959 PWs)   bands (ev):

   -36.1460 -12.6806 -11.9625 -11.6455  14.4557  16.7806  18.4492  21.1188
    21.6761  22.2577  31.1488

          k = 0.0000-0.4167 0.4167 (   961 PWs)   bands (ev):

   -36.0997 -12.9182 -12.0393 -11.6480  14.3790  16.4680  19.6133  21.3632
    21.9155  23.7383  30.0603

          k = 0.0000 0.5000-0.5000 (   962 PWs)   bands (ev):

   -36.0826 -13.0038 -12.0672 -11.6490  14.2986  16.3589  20.3263  21.3439
    22.0264  24.4248  29.6391

          k =-0.0833-0.0833 0.1667 (   955 PWs)   bands (ev):

   -36.2849 -11.9158 -11.6992 -11.6605  12.9233  17.9884  18.0898  19.2528
    20.6960  21.3962  32.8605

          k =-0.0833-0.1667 0.2500 (   960 PWs)   bands (ev):

   -36.2315 -12.2091 -11.7972 -11.6725  13.8023  17.5138  17.7687  20.3286
    20.5173  21.5693  33.0821

          k =-0.0833-0.2500 0.3333 (   954 PWs)   bands (ev):

   -36.1691 -12.5320 -11.9208 -11.6783  14.5402  17.0135  17.7917  20.7124
    21.7479  21.8405  31.9990

          k =-0.0833-0.3333 0.4167 (   951 PWs)   bands (ev):

   -36.1145 -12.8019 -12.0276 -11.6826  14.6502  16.6384  18.6227  21.1079
    21.9799  23.4212  30.7435

          k =-0.0833 0.5833-0.5000 (   953 PWs)   bands (ev):

   -36.0827 -12.9543 -12.0887 -11.6850  14.5219  16.4398  19.5613  21.2590
    22.2563  24.6233  29.9641

          k =-0.1667-0.1667 0.3333 (   951 PWs)   bands (ev):

   -36.1775 -12.4597 -11.8952 -11.7199  14.6569  17.1717  17.3786  20.4313
    21.7099  21.9281  32.7628

          k =-0.1667-0.2500 0.4167 (   952 PWs)   bands (ev):

   -36.1231 -12.6832 -12.0384 -11.7421  15.1669  16.7895  17.6079  20.6981
    22.0492  23.4962  31.3781

          k =-0.1667 0.6667-0.5000 (   955 PWs)   bands (ev):

   -36.0828 -12.8348 -12.1574 -11.7520  15.1114  16.5998  18.3388  21.0630
    22.2182  25.1417  30.0370

          k =-0.1667 0.5833-0.4167 (   951 PWs)   bands (ev):

   -36.0680 -12.8882 -12.2028 -11.7550  15.0272  16.5395  18.7312  21.1552
    22.4101  25.9386  29.2817

          k =-0.2500 0.7500-0.5000 (   947 PWs)   bands (ev):

   -36.0829 -12.7566 -12.2145 -11.7811  15.5897  16.6338  17.6837  20.9540
    22.1204  25.4143  30.1057

          k =-0.2500 0.6667-0.4167 (   946 PWs)   bands (ev):

   -36.0596 -12.7586 -12.3634 -11.7967  15.6345  16.7003  17.8183  21.2983
    22.1516  27.1182  28.8175

          k =-0.3333 0.6667-0.3333 (   937 PWs)   bands (ev):

   -36.0511 -12.5868 -12.5868 -11.8099  15.8479  17.1638  17.1638  21.7856
    21.7856  28.2218  29.1129

          k = 0.0000 0.0000 0.1667 (   955 PWs)   bands (ev):

   -36.2995 -11.7699 -11.6963 -11.6963  12.6716  18.3435  18.3435  18.6481
    20.4894  21.5947  32.9974

          k = 0.0000-0.0833 0.2500 (   960 PWs)   bands (ev):

   -36.2555 -12.0051 -11.7784 -11.7148  13.4128  18.0104  18.1972  19.3660
    19.9092  21.8230  33.4533

          k = 0.0000-0.1667 0.3333 (   951 PWs)   bands (ev):

   -36.1947 -12.3392 -11.8886 -11.7158  14.2913  17.5091  17.8468  19.9987
    20.6164  22.0138  32.7002

          k = 0.0000-0.2500 0.4167 (   951 PWs)   bands (ev):

   -36.1333 -12.6628 -11.9966 -11.7153  14.7067  17.0582  18.0249  20.5346
    22.1689  22.2293  31.3333

          k = 0.0000-0.3333 0.5000 (   956 PWs)   bands (ev):

   -36.0878 -12.8930 -12.0743 -11.7148  14.6148  16.7553  18.7481  20.8564
    22.7482  23.6687  30.4041

          k = 0.0000 0.5833-0.4167 (   952 PWs)   bands (ev):

   -36.0711 -12.9759 -12.1025 -11.7146  14.5253  16.6494  19.1758  20.7929
    23.2073  24.3688  29.9431

          k =-0.0833-0.0833 0.3333 (   955 PWs)   bands (ev):

   -36.2041 -12.2339 -11.8719 -11.7704  14.2286  17.7698  17.9372  19.5132
    20.2288  22.1381  33.5054

          k =-0.0833-0.1667 0.4167 (   951 PWs)   bands (ev):

   -36.1442 -12.5184 -11.9976 -11.7843  14.9556  17.2198  17.7610  19.8335
    21.5829  22.4408  32.0382

          k =-0.0833-0.2500 0.5000 (   950 PWs)   bands (ev):

   -36.0917 -12.7632 -12.1093 -11.7859  15.0811  17.0212  17.8783  20.3825
    22.4101  23.6205  30.9068

          k =-0.0833 0.6667-0.4167 (   953 PWs)   bands (ev):

   -36.0612 -12.9026 -12.1733 -11.7854  14.9282  16.9288  18.2483  20.4867
    23.1175  24.9812  29.8579

          k =-0.1667 0.1667 0.1667 (   959 PWs)   bands (ev):

   -36.2449 -12.1669 -11.7072 -11.7072  13.6271  17.5741  17.5741  20.3513
    21.0822  21.0822  33.3384

          k =-0.1667-0.1667 0.5000 (   959 PWs)   bands (ev):

   -36.0931 -12.6799 -12.1554 -11.8166  15.5262  16.6639  17.8639  20.0953
    22.0972  23.7733  31.1692

          k =-0.1667 0.7500-0.4167 (   950 PWs)   bands (ev):

   -36.0555 -12.7822 -12.2980 -11.8254  15.6138  16.6751  17.7118  20.5884
    22.3611  25.6848  29.9078

          k =-0.1667 0.6667-0.3333 (   949 PWs)   bands (ev):

   -36.0417 -12.8155 -12.3554 -11.8270  15.5245  16.9187  17.5087  20.7351
    22.6847  26.8507  28.9973

          k =-0.2500 0.2500 0.1667 (   955 PWs)   bands (ev):

   -36.1897 -12.4432 -11.8303 -11.7183  14.5497  17.0631  17.2571  21.0272
    21.4363  21.8171  33.0413

          k =-0.2500 0.7500-0.3333 (   949 PWs)   bands (ev):

   -36.0345 -12.7086 -12.5031 -11.8372  16.1609  16.5212  17.1473  21.3019
    22.1135  27.8668  28.7826

          k =-0.3333 0.3333 0.1667 (   953 PWs)   bands (ev):

   -36.1340 -12.6881 -11.9768 -11.7294  15.0365  16.6626  17.6609  21.2311
    21.7343  23.4816  31.7041

          k =-0.3333 0.2500 0.2500 (   953 PWs)   bands (ev):

   -36.1411 -12.6356 -11.9272 -11.7900  15.4159  16.7721  16.9155  21.2112
    21.7274  23.5601  32.3257

          k = 0.5833-0.5833 0.1667 (   953 PWs)   bands (ev):

   -36.0928 -12.8553 -12.0914 -11.7377  14.9431  16.4121  18.7744  21.4554
    21.9654  24.9740  30.2929

          k = 0.5833-0.6667 0.2500 (   949 PWs)   bands (ev):

   -36.0987 -12.7529 -12.0901 -11.8217  15.6276  16.5331  17.5506  21.4302
    21.9781  25.3149  30.5749

          k = 0.5000-0.5000 0.1667 (   940 PWs)   bands (ev):

   -36.0777 -12.9145 -12.1344 -11.7407  14.8540  16.3271  19.3995  21.5194
    22.0594  25.6265  29.4486

          k = 0.5000-0.5833 0.2500 (   948 PWs)   bands (ev):

   -36.0741 -12.7977 -12.2116 -11.8350  15.4901  16.4197  18.4148  21.6210
    22.0987  26.5847  29.0016

          k = 0.5000-0.6667 0.3333 (   940 PWs)   bands (ev):

   -36.0728 -12.7150 -12.2732 -11.8782  15.8606  16.7308  17.6168  21.6512
    22.0825  27.0601  28.9443

          k = 0.4167-0.5833 0.3333 (   946 PWs)   bands (ev):

   -36.0634 -12.6473 -12.3993 -11.8944  15.8625  16.8561  17.7348  21.8141
    22.0606  28.1305  28.1692

          k = 0.0000 0.0000 0.3333 (   968 PWs)   bands (ev):

   -36.2138 -12.0779 -11.8633 -11.8633  14.0953  18.4223  18.4223  18.7354
    19.3949  22.2553  34.5778

          k = 0.0000-0.0833 0.4167 (   950 PWs)   bands (ev):

   -36.1564 -12.3288 -11.9771 -11.9049  14.9083  17.6017  18.2253  19.0540
    20.4096  22.5167  32.7981

          k = 0.0000-0.1667 0.5000 (   948 PWs)   bands (ev):

   -36.0983 -12.6148 -12.0886 -11.9014  15.3217  17.1371  17.8601  19.7589
    21.9480  22.8817  31.7079

          k = 0.0000-0.2500 0.5833 (   954 PWs)   bands (ev):

   -36.0554 -12.8233 -12.1688 -11.8939  15.1630  17.3872  17.5947  19.9691
    23.4852  23.9301  30.6039

          k = 0.0000 0.6667-0.3333 (   944 PWs)   bands (ev):

   -36.0396 -12.8990 -12.1978 -11.8908  15.0375  17.5001  17.6072  19.8750
    24.2191  24.8092  29.6611

          k =-0.0833-0.0833 0.5000 (   956 PWs)   bands (ev):

   -36.1007 -12.5123 -12.1118 -11.9631  15.5324  16.8206  18.4130  19.3275
    21.3862  22.8908  32.1410

          k =-0.0833-0.1667 0.5833 (   953 PWs)   bands (ev):

   -36.0521 -12.6998 -12.2381 -11.9670  15.6701  16.5173  18.1523  19.9267
    22.3764  24.1274  31.2654

          k =-0.0833 0.7500-0.3333 (   953 PWs)   bands (ev):

   -36.0238 -12.8122 -12.3102 -11.9627  15.4159  16.8172  17.8026  20.0942
    23.3319  25.8416  29.6606

          k =-0.1667 0.8333-0.3333 (   945 PWs)   bands (ev):

   -36.0180 -12.7276 -12.4182 -11.9761  15.9774  16.0993  17.7813  20.7743
    22.4674  26.2301  29.9101

          k =-0.1667 0.7500-0.2500 (   947 PWs)   bands (ev):

   -36.0055 -12.7146 -12.5109 -11.9752  15.8307  16.3318  17.4374  21.2259
    22.6005  27.9697  28.7421

          k = 0.6667-0.6667 0.3333 (   959 PWs)   bands (ev):

   -36.1045 -12.7189 -11.9591 -11.9591  16.4256  16.5471  16.5471  21.7484
    21.7484  25.4418  31.3448

          k = 0.5833-0.5833 0.3333 (   942 PWs)   bands (ev):

   -36.0777 -12.7066 -12.1596 -11.9824  16.2446  16.4461  17.4936  21.8635
    22.0380  27.0470  29.1475

          k = 0.5000-0.5000 0.3333 (   952 PWs)   bands (ev):

   -36.0678 -12.6693 -12.2664 -11.9910  16.1454  16.4195  17.9768  21.9237
    22.1265  27.8393  28.1576

          k = 0.5000-0.5833 0.4167 (   943 PWs)   bands (ev):

   -36.0655 -12.5617 -12.3158 -12.0811  16.3542  16.8677  17.3927  22.0462
    22.1214  27.8342  28.6988

          k = 0.0000 0.0000 0.5000 (   944 PWs)   bands (ev):

   -36.1035 -12.3739 -12.0957 -12.0957  15.5335  16.9350  18.9901  18.9901
    20.5467  22.7856  32.6837

          k = 0.0000-0.0833 0.5833 (   952 PWs)   bands (ev):

   -36.0501 -12.5552 -12.2118 -12.1418  15.7874  16.2290  19.0665  19.5682
    21.7320  23.2863  32.5191

          k = 0.0000-0.1667 0.6667 (   947 PWs)   bands (ev):

   -36.0107 -12.7271 -12.2951 -12.1314  15.4435  16.1876  18.9159  19.7979
    23.2515  24.7181  30.7957

          k = 0.0000 0.7500-0.2500 (   944 PWs)   bands (ev):

   -35.9962 -12.7920 -12.3253 -12.1247  15.2629  16.2343  18.8490  19.7779
    24.0221  26.0722  29.1900

          k =-0.0833-0.0833 0.6667 (   946 PWs)   bands (ev):

   -36.0059 -12.6430 -12.3553 -12.1814  15.6222  15.7867  19.1449  20.3812
    22.4478  24.5088  31.5673

          k =-0.0833 0.8333-0.2500 (   945 PWs)   bands (ev):

   -35.9803 -12.7079 -12.4494 -12.1756  15.3107  15.7126  18.9538  20.9245
    23.2312  26.5217  29.4467

          k =-0.1667 0.8333-0.1667 (   946 PWs)   bands (ev):

   -35.9691 -12.6119 -12.6119 -12.1742  15.3966  15.3966  18.8228  22.3803
    22.3803  28.6860  28.7934

          k = 0.5000-0.5000 0.5000 (   952 PWs)   bands (ev):

   -36.0629 -12.3314 -12.3314 -12.3314  16.9316  16.9316  16.9316  22.1606
    22.1606  27.5168  29.9798

          k = 0.0000 0.0000 0.6667 (   948 PWs)   bands (ev):

   -36.0015 -12.5374 -12.3321 -12.3321  15.4994  15.6566  20.2374  20.2374
    21.9159  23.7937  32.9137

          k = 0.0000-0.0833 0.7500 (   953 PWs)   bands (ev):

   -35.9657 -12.6306 -12.4185 -12.3602  15.0493  15.3241  20.5747  20.8106
    23.0563  25.1631  30.5193

          k = 0.0000 0.8333-0.1667 (   950 PWs)   bands (ev):

   -35.9525 -12.6829 -12.4498 -12.3514  14.8998  15.1785  20.5857  20.9422
    23.8328  26.7920  28.5554

          k =-0.0833 0.9167-0.1667 (   946 PWs)   bands (ev):

   -35.9423 -12.6273 -12.5354 -12.3761  14.7995  14.9316  20.6807  22.1914
    23.2801  26.8349  28.9905

          k = 0.0000 0.0000 0.8333 (   948 PWs)   bands (ev):

   -35.9325 -12.5752 -12.5071 -12.5071  14.5944  14.7552  22.1195  22.1195
    23.1349  25.8386  29.2719

          k = 0.0000 0.9167-0.0833 (   942 PWs)   bands (ev):

   -35.9203 -12.6016 -12.5392 -12.5131  14.4602  14.5137  22.4843  22.6466
    23.6987  27.0644  27.7225

          k = 0.0000 0.0000-1.0000 (   976 PWs)   bands (ev):

   -35.9085 -12.5715 -12.5715 -12.5715  14.2866  14.2866  23.6505  23.6505
    23.6505  27.1206  27.1206

     the Fermi energy is    18.0005 ev

!    total energy              =    -117.93348313 Ry
     estimated scf accuracy    <          1.6E-12 Ry
     smearing contrib. (-TS)   =       0.00081761 Ry
     internal energy E=F+TS    =    -117.93430074 Ry

     The total energy is F=E-TS. E is the sum of the following terms:
     one-electron contribution =     -15.73397069 Ry
     hartree contribution      =      14.88962582 Ry
     xc contribution           =     -18.44834353 Ry
     ewald contribution        =     -98.64161234 Ry

     convergence has been achieved in  10 iterations

     Writing all to output data dir ./tmp/Nb_ecut60.save/

     init_run     :      0.43s CPU      0.46s WALL (       1 calls)
     electrons    :      7.33s CPU      7.79s WALL (       1 calls)

     Called by init_run:
     wfcinit      :      0.25s CPU      0.26s WALL (       1 calls)
     potinit      :      0.02s CPU      0.02s WALL (       1 calls)
     hinit0       :      0.14s CPU      0.14s WALL (       1 calls)

     Called by electrons:
     c_bands      :      5.73s CPU      6.01s WALL (      11 calls)
     sum_band     :      1.30s CPU      1.43s WALL (      11 calls)
     v_of_rho     :      0.13s CPU      0.14s WALL (      11 calls)
     newd         :      0.17s CPU      0.22s WALL (      11 calls)
     mix_rho      :      0.01s CPU      0.01s WALL (      11 calls)

     Called by c_bands:
     init_us_2    :      0.17s CPU      0.18s WALL (    1656 calls)
     init_us_2:cp :      0.17s CPU      0.18s WALL (    1656 calls)
     cegterg      :      5.48s CPU      5.74s WALL (     792 calls)

     Called by *egterg:
     cdiaghg      :      0.18s CPU      0.19s WALL (    2824 calls)
     h_psi        :      4.75s CPU      4.95s WALL (    2968 calls)
     s_psi        :      0.12s CPU      0.12s WALL (    2968 calls)
     g_psi        :      0.02s CPU      0.02s WALL (    2104 calls)

     Called by h_psi:
     h_psi:calbec :      0.13s CPU      0.14s WALL (    2968 calls)
     vloc_psi     :      4.48s CPU      4.67s WALL (    2968 calls)
     add_vuspsi   :      0.12s CPU      0.12s WALL (    2968 calls)

     General routines
     calbec       :      0.18s CPU      0.19s WALL (    3760 calls)
     fft          :      0.06s CPU      0.07s WALL (     142 calls)
     ffts         :      0.00s CPU      0.00s WALL (      22 calls)
     fftw         :      4.34s CPU      4.52s WALL (   54300 calls)
     interpolate  :      0.01s CPU      0.01s WALL (      11 calls)


     PWSCF        :      7.82s CPU      8.33s WALL


   This run was terminated on:  21: 7:10   6Mar2026            

=------------------------------------------------------------------------------=
   JOB DONE.
=------------------------------------------------------------------------------=
Note: The following floating-point exceptions are signalling: IEEE_INVALID_FLAG IEEE_DIVIDE_BY_ZERO IEEE_UNDERFLOW_FLAG
