
     Program PWSCF v.7.2 starts on  6Mar2026 at 21: 6:51 

     This program is part of the open-source Quantum ESPRESSO suite
     for quantum simulation of materials; please cite
         "P. Giannozzi et al., J. Phys.:Condens. Matter 21 395502 (2009);
         "P. Giannozzi et al., J. Phys.:Condens. Matter 29 465901 (2017);
         "P. Giannozzi et al., J. Chem. Phys. 152 154105 (2020);
          URL http://www.quantum-espresso.org", 
     in publications or presentations arising from this work. More details at
     http://www.quantum-espresso.org/quote

     Serial multi-threaded version, running on    1 processor cores
     0 MiB available memory on the printing compute node when the environment starts

     Reading input from tmp_scf.in

     Program PWSCF v.7.2 starts on  6Mar2026 at 21: 6:51 

     This program is part of the open-source Quantum ESPRESSO suite
     for quantum simulation of materials; please cite
         "P. Giannozzi et al., J. Phys.:Condens. Matter 21 395502 (2009);
         "P. Giannozzi et al., J. Phys.:Condens. Matter 29 465901 (2017);
         "P. Giannozzi et al., J. Chem. Phys. 152 154105 (2020);
          URL http://www.quantum-espresso.org", 
     in publications or presentations arising from this work. More details at
     http://www.quantum-espresso.org/quote

     Serial multi-threaded version, running on    1 processor cores
     0 MiB available memory on the printing compute node when the environment starts


     Program PWSCF v.7.2 starts on  6Mar2026 at 21: 6:51 

     This program is part of the open-source Quantum ESPRESSO suite
     for quantum simulation of materials; please cite
         "P. Giannozzi et al., J. Phys.:Condens. Matter 21 395502 (2009);
         "P. Giannozzi et al., J. Phys.:Condens. Matter 29 465901 (2017);
         "P. Giannozzi et al., J. Chem. Phys. 152 154105 (2020);
          URL http://www.quantum-espresso.org", 
     in publications or presentations arising from this work. More details at
     http://www.quantum-espresso.org/quote

     Serial multi-threaded version, running on    1 processor cores
     0 MiB available memory on the printing compute node when the environment starts

     Reading input from tmp_scf.in

     Program PWSCF v.7.2 starts on  6Mar2026 at 21: 6:51 

     This program is part of the open-source Quantum ESPRESSO suite
     for quantum simulation of materials; please cite
         "P. Giannozzi et al., J. Phys.:Condens. Matter 21 395502 (2009);
         "P. Giannozzi et al., J. Phys.:Condens. Matter 29 465901 (2017);
         "P. Giannozzi et al., J. Chem. Phys. 152 154105 (2020);
          URL http://www.quantum-espresso.org", 
     in publications or presentations arising from this work. More details at
     http://www.quantum-espresso.org/quote

     Serial multi-threaded version, running on    1 processor cores
     0 MiB available memory on the printing compute node when the environment starts

     Reading input from tmp_scf.in
     Reading input from tmp_scf.in

     Current dimensions of program PWSCF are:
     Max number of different atomic species (ntypx) = 10
     Max number of k-points (npk) =  40000
     Max angular momentum in pseudopotentials (lmaxx) =  4

     Current dimensions of program PWSCF are:
     Max number of different atomic species (ntypx) = 10
     Max number of k-points (npk) =  40000
     Max angular momentum in pseudopotentials (lmaxx) =  4

     Current dimensions of program PWSCF are:
     Max number of different atomic species (ntypx) = 10
     Max number of k-points (npk) =  40000
     Max angular momentum in pseudopotentials (lmaxx) =  4

     Current dimensions of program PWSCF are:
     Max number of different atomic species (ntypx) = 10
     Max number of k-points (npk) =  40000
     Max angular momentum in pseudopotentials (lmaxx) =  4




     G-vector sticks info
     --------------------
     sticks:   dense  smooth     PW     G-vecs:    dense   smooth      PW
     Sum         709     345    117                11849     4093     791

     Using Slab Decomposition



     bravais-lattice index     =            3
     lattice parameter (alat)  =       6.2350  a.u.
     unit-cell volume          =     121.1935 (a.u.)^3
     number of atoms/cell      =            1
     number of atomic types    =            1
     number of electrons       =        13.00
     number of Kohn-Sham states=           11
     kinetic-energy cutoff     =      40.0000  Ry
     charge density cutoff     =     320.0000  Ry
     scf convergence threshold =      1.0E-10
     mixing beta               =       0.7000
     number of iterations used =            8  plain     mixing
     Exchange-correlation= SLA  PW   PBE  PBE
                           (   1   4   3   4   0   0   0)

     celldm(1)=   6.235000  celldm(2)=   0.000000  celldm(3)=   0.000000
     celldm(4)=   0.000000  celldm(5)=   0.000000  celldm(6)=   0.000000

     crystal axes: (cart. coord. in units of alat)
               a(1) = (   0.500000   0.500000   0.500000 )  
               a(2) = (  -0.500000   0.500000   0.500000 )  
               a(3) = (  -0.500000  -0.500000   0.500000 )  

     reciprocal axes: (cart. coord. in units 2 pi/alat)
               b(1) = (  1.000000  0.000000  1.000000 )  
               b(2) = ( -1.000000  1.000000  0.000000 )  
               b(3) = (  0.000000 -1.000000  1.000000 )  


     PseudoPot. # 1 for Nb read from file:
     ./pseudo/nb_pbe_v1.uspp.F.UPF
     MD5 check sum: 573aab8a2fa660278ed4a62cd769473f
     Pseudo is Ultrasoft + core correction, Zval = 13.0
     Generated by new atomic code, or converted to UPF format
     Using radial grid of  887 points,  6 beta functions with: 
                l(1) =   0
                l(2) =   0
                l(3) =   1
                l(4) =   1
                l(5) =   2
                l(6) =   2
     Q(r) pseudized with  6 coefficients,  rinner =    1.000   1.000   1.000
                                                       1.000   1.000

     atomic species   valence    mass     pseudopotential
        Nb            13.00    92.90600     Nb( 1.00)


     G-vector sticks info
     --------------------
     sticks:   dense  smooth     PW     G-vecs:    dense   smooth      PW
     Sum         709     345    117                11849     4093     791

     Using Slab Decomposition



     bravais-lattice index     =            3
     48 Sym. Ops., with inversion, found



   Cartesian axes

     site n.     atom                  positions (alat units)
         1           Nb  tau(   1) = (   0.0000000   0.0000000   0.0000000  )

     number of k points=    72  Marzari-Vanderbilt smearing, width (Ry)=  0.0200
                       cart. coord. in units 2pi/alat
     lattice parameter (alat)  =       6.2350  a.u.
     unit-cell volume          =     121.1935 (a.u.)^3
     number of atoms/cell      =            1
     number of atomic types    =            1
     number of electrons       =        13.00
        k(    1) = (   0.0000000   0.0000000   0.0000000), wk =   0.0011574
        k(    2) = (   0.0000000  -0.0833333   0.0833333), wk =   0.0138889
        k(    3) = (   0.0000000  -0.1666667   0.1666667), wk =   0.0138889
        k(    4) = (   0.0000000  -0.2500000   0.2500000), wk =   0.0138889
        k(    5) = (   0.0000000  -0.3333333   0.3333333), wk =   0.0138889
        k(    6) = (   0.0000000  -0.4166667   0.4166667), wk =   0.0138889
        k(    7) = (   0.0000000   0.5000000  -0.5000000), wk =   0.0069444
        k(    8) = (  -0.0833333  -0.0833333   0.1666667), wk =   0.0277778
        k(    9) = (  -0.0833333  -0.1666667   0.2500000), wk =   0.0555556
     number of Kohn-Sham states=           11
     kinetic-energy cutoff     =      40.0000  Ry
     charge density cutoff     =     320.0000  Ry
     scf convergence threshold =      1.0E-10
     mixing beta               =       0.7000
     number of iterations used =            8  plain     mixing
     Exchange-correlation= SLA  PW   PBE  PBE
                           (   1   4   3   4   0   0   0)
        k(   10) = (  -0.0833333  -0.2500000   0.3333333), wk =   0.0555556
        k(   11) = (  -0.0833333  -0.3333333   0.4166667), wk =   0.0555556
        k(   12) = (  -0.0833333   0.5833333  -0.5000000), wk =   0.0555556
        k(   13) = (  -0.1666667  -0.1666667   0.3333333), wk =   0.0277778
        k(   14) = (  -0.1666667  -0.2500000   0.4166667), wk =   0.0555556
        k(   15) = (  -0.1666667   0.6666667  -0.5000000), wk =   0.0555556

     celldm(1)=   6.235000  celldm(2)=   0.000000  celldm(3)=   0.000000
     celldm(4)=   0.000000  celldm(5)=   0.000000  celldm(6)=   0.000000

     crystal axes: (cart. coord. in units of alat)
               a(1) = (   0.500000   0.500000   0.500000 )  
        k(   16) = (  -0.1666667   0.5833333  -0.4166667), wk =   0.0277778
        k(   17) = (  -0.2500000   0.7500000  -0.5000000), wk =   0.0277778
        k(   18) = (  -0.2500000   0.6666667  -0.4166667), wk =   0.0555556
        k(   19) = (  -0.3333333   0.6666667  -0.3333333), wk =   0.0092593
        k(   20) = (   0.0000000   0.0000000   0.1666667), wk =   0.0069444
        k(   21) = (   0.0000000  -0.0833333   0.2500000), wk =   0.0277778
               a(2) = (  -0.500000   0.500000   0.500000 )  
               a(3) = (  -0.500000  -0.500000   0.500000 )  

     reciprocal axes: (cart. coord. in units 2 pi/alat)
               b(1) = (  1.000000  0.000000  1.000000 )  
               b(2) = ( -1.000000  1.000000  0.000000 )  
               b(3) = (  0.000000 -1.000000  1.000000 )  


     PseudoPot. # 1 for Nb read from file:
     ./pseudo/nb_pbe_v1.uspp.F.UPF
     MD5 check sum: 573aab8a2fa660278ed4a62cd769473f
     Pseudo is Ultrasoft + core correction, Zval = 13.0
     Generated by new atomic code, or converted to UPF format
     Using radial grid of  887 points,  6 beta functions with: 
                l(1) =   0
                l(2) =   0
                l(3) =   1
                l(4) =   1
                l(5) =   2
                l(6) =   2
        k(   22) = (   0.0000000  -0.1666667   0.3333333), wk =   0.0277778
        k(   23) = (   0.0000000  -0.2500000   0.4166667), wk =   0.0277778
        k(   24) = (   0.0000000  -0.3333333   0.5000000), wk =   0.0277778
        k(   25) = (   0.0000000   0.5833333  -0.4166667), wk =   0.0138889
        k(   26) = (  -0.0833333  -0.0833333   0.3333333), wk =   0.0277778
        k(   27) = (  -0.0833333  -0.1666667   0.4166667), wk =   0.0555556
        k(   28) = (  -0.0833333  -0.2500000   0.5000000), wk =   0.0555556
        k(   29) = (  -0.0833333   0.6666667  -0.4166667), wk =   0.0555556
        k(   30) = (  -0.1666667   0.1666667   0.1666667), wk =   0.0092593
        k(   31) = (  -0.1666667  -0.1666667   0.5000000), wk =   0.0277778
        k(   32) = (  -0.1666667   0.7500000  -0.4166667), wk =   0.0555556
        k(   33) = (  -0.1666667   0.6666667  -0.3333333), wk =   0.0277778
        k(   34) = (  -0.2500000   0.2500000   0.1666667), wk =   0.0277778
        k(   35) = (  -0.2500000   0     Q(r) pseudized with  6 coefficients,  rinner =    1.000   1.000   1.000
                                                       1.000   1.000

     atomic species   valence    mass     pseudopotential
        Nb            13.00    92.90600     Nb( 1.00)

     48 Sym. Ops., with inversion, found



   Cartesian axes

     site n.     atom                  positions (alat units)
         1           Nb  tau(   1) = (   0.0000000   0.0000000   0.0000000  )

     number of k points=    72  Marzari-Vanderbilt smearing, width (Ry)=  0.0200
                       cart. coord. in units 2pi/alat
        k(    1) = (   0.0000000   0.0000000   0.0000000), wk =   0.0011574
        k(    2) = (   0.0000000  -0.0833333   0.0833333), wk =   0.0138889
.7500000  -0.3333333), wk =   0.0277778

        k(    3) = (   0.0000000  -0.1666667   0.1666667), wk =   0.0138889
        k(    4) = (   0.0000000  -0.2500000   0.2500000), wk =   0.0138889
        k(    5) = (   0.0000000  -0.3333333   0.3333333), wk =   0.0138889
        k(    6) = (   0.0000000  -0.4166667   0.4166667), wk =   0.0138889
        k(    7) = (   0.0000000   0.5000000  -0.5000000), wk =   0.0069444
        k(   36) = (  -0.3333333   0.3333333   0.1666667), wk =   0.0277778
        k(   37) = (  -0.3333333   0.2500000   0.2500000), wk =   0.0277778
        k(   38) = (   0.5833333  -0.5833333   0.1666667), wk =   0.0277778
        k(    8) = (  -0.0833333  -0.0833333   0.1666667), wk =   0.0277778
        k(    9) = (  -0.0833333  -0.1666667   0.2500000), wk =   0.0555556
        k(   10) = (  -0.0833333  -0.2500000   0.3333333), wk =   0.0555556
        k(   39) = (   0.5833333  -0.6666667   0.2500000), wk =   0.0555556
        k(   40) = (   0.5000000  -0.5000000   0.1666667), wk =   0.0138889
        k(   11) = (  -0.0833333  -0.3333333   0.4166667), wk =   0.0555556
        k(   12) = (  -0.0833333   0.5833333  -0.5000000), wk =   0.0555556
        k(   13) = (  -0.1666667  -0.1666667   0.3333333), wk =   0.0277778
        k(   14) = (  -0.1666667  -0.2500000   0.4166667), wk =   0.0555556
        k(   41) = (   0.5000000  -0.5833333   0.2500000), wk =   0.0555556
        k(   42) = (   0.5000000  -0.6666667   0.3333333), wk =   0.0277778
        k(   43) = (   0.4166667  -0.5833333   0.3333333), wk =   0.0277778
        k(   15) = (  -0.1666667   0.6666667  -0.5000000), wk =   0.0555556
        k(   16) = (  -0.1666667   0.5833333  -0.4166667), wk =   0.0277778
        k(   44) = (   0.0000000   0.0000000   0.3333333), wk =   0.0069444
        k(   45) = (   0.0000000  -0.0833333   0.4166667), wk =   0.0277778
        k(   17) = (  -0.2500000   0.7500000  -0.5000000), wk =   0.0277778
        k(   18) = (  -0.2500000   0.6666667  -0.4166667), wk =   0.0555556
        k(   19) = (  -0.3333333   0.6666667  -0.3333333), wk =   0.0092593
        k(   46) = (   0.0000000  -0.1666667   0.5000000), wk =   0.0277778
        k(   47) = (   0.0000000  -0.2500000   0.5833333), wk =   0.0277778
        k(   20) = (   0.0000000   0.0000000   0.1666667), wk =   0.0069444
        k(   21) = (   0.0000000  -0.0833333   0.2500000), wk =   0.0277778
        k(   48) = (   0.0000000   0.6666667  -0.3333333), wk =   0.0138889
        k(   49) = (  -0.0833333  -0.0833333   0.5000000), wk =   0.0277778
        k(   22) = (   0.0000000  -0.1666667   0.3333333), wk =   0.0277778
        k(   23) = (   0.0000000  -0.2500000   0.4166667), wk =   0.0277778
        k(   50) = (  -0.0833333  -0.1666667   0.5833333), wk =   0.0555556
        k(   51) = (  -0.0833333   0.7500000  -0.3333333), wk =   0.0555556
        k(   24) = (   0.0000000  -0.3333333   0.5000000), wk =   0.0277778
        k(   25) = (   0.0000000   0.5833333  -0.4166667), wk =   0.0138889
        k(   26) = (  -0.0833333  -0.0833333   0.3333333), wk =   0.0277778
        k(   52) = (  -0.1666667   0.8333333  -0.3333333), wk =   0.0277778
        k(   53) = (  -0.1666667   0.7500000  -0.2500000), wk =   0.0277778
        k(   27) = (  -0.0833333  -0.1666667   0.4166667), wk =   0.0555556
        k(   28) = (  -0.0833333  -0.2500000   0.5000000), wk =   0.0555556
        k(   54) = (   0.6666667  -0.6666667   0.3333333), wk =   0.0092593
        k(   55) = (   0.5833333  -0.5833333   0.3333333), wk =   0.0277778
        k(   29) = (  -0.0833333   0.6666667  -0.4166667), wk =   0.0555556
        k(   30) = (  -0.1666667   0.1666667   0.1666667), wk =   0.0092593
        k(   31) = (  -0.1666667  -0.1666667   0.5000000), wk =   0.0277778
        k(   32) = (  -0.1666667   0.7500000  -0.4166667), wk =   0.0555556
        k(   56) = (   0.5000000  -0.5000000   0.3333333), wk =   0.0138889
        k(   57) = (   0.5000000  -0.5833333   0.4166667), wk =   0.0277778
        k(   58) = (   0.0000000   0.0000000   0.5000000), wk =   0.0069444
        k(   33) = (  -0.1666667   0.6666667  -0.3333333), wk =   0.0277778
        k(   34) = (  -0.2500000   0.2500000   0.1666667), wk =   0.0277778
        k(   35) = (  -0.2500000   0.7500000  -0.3333333), wk =   0.0277778
        k(   59) = (   0.0000000  -0.0833333   0.5833333), wk =   0.0277778
        k(   60) = (   0.0000000  -0.1666667   0.6666667), wk =   0.0277778
        k(   36) = (  -0.3333333   0.3333333   0.1666667), wk =   0.0277778
        k(   37) = (  -0.3333333   0.2500000   0.2500000), wk =   0.0277778
        k(   61) = (   0.0000000   0.7500000  -0.2500000), wk =   0.0138889
        k(   62) = (  -0.0833333  -0.0833333   0.6666667), wk =   0.0277778
        k(   38) = (   0.5833333  -0.5833333   0.1666667), wk =   0.0277778
        k(   39) = (   0.5833333  -0.6666667   0.2500000), wk =   0.0555556
        k(   40) = (   0.5000000  -0.5000000   0.1666667), wk =   0.0138889
        k(   41) = (   0.5000000  -0.5833333   0.2500000), wk =   0.0555556
        k(   42) = (   0.5000000  -0.6666667   0.3333333), wk =   0.0277778
        k(   43) = (   0.4166667  -0.5833333   0.3333333), wk =   0.0277778
        k(   44) = (   0.0000000   0.0000000   0.3333333), wk =   0.0069444
        k(   45) = (   0.0000000  -0.0833333   0.4166667), wk =   0.0277778
        k(   46) = (   0.0000000  -0.1666667   0.5000000), wk =   0.0277778
        k(   63) = (  -0.0833333   0.8333333  -0.2500000), wk =   0.0555556
        k(   64) = (  -0.1666667   0.8333333  -0.1666667), wk =   0.0092593
        k(   65) = (   0.5000000  -0.5000000   0.5000000), wk =   0.0023148
        k(   47) = (   0.0000000  -0.2500000   0.5833333), wk =   0.0277778
        k(   48) = (   0.0000000   0.6666667  -0.3333333), wk =   0.0138889
        k(   49) = (  -0.0833333  -0.0833333   0.5000000), wk =   0.0277778
        k(   66) = (   0.0000000   0.0000000   0.6666667), wk =   0.0069444
        k(   67) = (   0.0000000  -0.0833333   0.7500000), wk =   0.0277778
        k(   50) = (  -0.0833333  -0.1666667   0.5833333), wk =   0.0555556
        k(   51) = (  -0.0833333   0.7500000  -0.3333333), wk =   0.0555556
        k(   52) = (  -0.1666667   0.8333333  -0.3333333), wk =   0.0277778
        k(   68) = (   0.0000000   0.8333333  -0.1666667), wk =   0.0138889
        k(   69) = (  -0.0833333   0.9166667  -0.1666667), wk =   0.0277778
        k(   70) = (   0.0000000   0.0000000   0.8333333), wk =   0.0069444
        k(   53) = (  -0.1666667   0.7500000  -0.2500000), wk =   0.0277778
        k(   54) = (   0.6666667  -0.6666667   0.3333333), wk =   0.0092593
        k(   71) = (   0.0000000   0.9166667  -0.0833333), wk =   0.0138889
        k(   72) = (   0.0000000   0.0000000  -1.0000000), wk =   0.0011574
        k(   55) = (   0.5833333  -0.5833333   0.3333333), wk =   0.0277778
        k(   56) = (   0.5000000  -0.5000000   0.3333333), wk =   0.0138889
        k(   57) = (   0.5000000  -0.5833333   0.4166667), wk =   0.0277778
        k(   58) = (   0.0000000   0.0000000   0.5000000), wk =   0.0069444

     Dense  grid:    11849 G-vectors     FFT dimensions: (  32,  32,  32)
        k(   59) = (   0.0000000  -0.0833333   0.5833333), wk =   0.0277778
        k(   60) = (   0.0000000  -0.1666667   0.6666667), wk =   0.0277778
        k(   61) = (   0.0000000   0.7500000  -0.2500000), wk =   0.0138889

     Smooth grid:     4093 G-vectors     FFT dimensions: (  24,  24,  24)
        k(   62) = (  -0.0833333  -0.0833333   0.6666667), wk =   0.0277778
        k(   63) = (  -0.0833333   0.8333333  -0.2500000), wk =   0.0555556
        k(   64) = (  -0.1666667   0.8333333  -0.1666667), wk =   0.0092593
        k(   65) = (   0.5000000  -0.5000000   0.5000000), wk =   0.0023148
        k(   66) = (   0.0000000   0.0000000   0.6666667), wk =   0.0069444
        k(   67) = (   0.0000000  -0.0833333   0.7500000), wk =   0.0277778
        k(   68) = (   0.0000000   0.8333333  -0.1666667), wk =   0.0138889

     Estimated max dynamical RAM per process >      48.85 MB
        k(   69) = (  -0.0833333   0.9166667  -0.1666667), wk =   0.0277778
        k(   70) = (   0.0000000   0.0000000   0.8333333), wk =   0.0069444
        k(   71) = (   0.0000000   0.9166667  -0.0833333), wk =   0.0138889
        k(   72) = (   0.0000000   0.0000000  -1.0000000), wk =   0.0011574

     Dense  grid:    11849 G-vectors     FFT dimensions: (  32,  32,  32)

     Smooth grid:     4093 G-vectors     FFT dimensions: (  24,  24,  24)

     Estimated max dynamical RAM per process >      48.85 MB

     G-vector sticks info
     --------------------
     sticks:   dense  smooth     PW     G-vecs:    dense   smooth      PW
     Sum         709     345    117                11849     4093     791

     Using Slab Decomposition



     bravais-lattice index     =            3
     lattice parameter (alat)  =       6.2350  a.u.
     unit-cell volume          =     121.1935 (a.u.)^3
     number of atoms/cell      =            1
     number of atomic types    =            1
     number of electrons       =        13.00
     number of Kohn-Sham states=           11
     kinetic-energy cutoff     =      40.0000  Ry
     charge density cutoff     =     320.0000  Ry
     scf convergence threshold =      1.0E-10
     mixing beta               =       0.7000
     number of iterations used =            8  plain     mixing
     Exchange-correlation= SLA  PW   PBE  PBE
                           (   1   4   3   4   0   0   0)

     celldm(1)=   6.235000  celldm(2)=   0.000000  celldm(3)=   0.000000
     celldm(4)=   0.000000  celldm(5)=   0.000000  celldm(6)=   0.000000

     crystal axes: (cart. coord. in units of alat)
               a(1) = (   0.500000   0.500000   0.500000 )  
               a(2) = (  -0.500000   0.500000   0.500000 )  
               a(3) = (  -0.500000  -0.500000   0.500000 )  

     reciprocal axes: (cart. coord. in units 2 pi/alat)
               b(1) = (  1.000000  0.000000  1.000000 )  
               b(2) = ( -1.000000  1.000000  0.000000 )  
               b(3) = (  0.000000 -1.000000  1.000000 )  


     PseudoPot. # 1 for Nb read from file:
     ./pseudo/nb_pbe_v1.uspp.F.UPF
     MD5 check sum: 573aab8a2fa660278ed4a62cd769473f
     Pseudo is Ultrasoft + core correction, Zval = 13.0

     G-vector sticks info
     --------------------
     sticks:   dense  smooth     PW     G-vecs:    dense   smooth      PW
     Generated by new atomic code, or converted to UPF format
     Using radial grid of  887 points,  6 beta functions with: 
                l(1) =   0
                l(2) =   0
                l(3) =   1
                l(4) =   1
                l(5) =   2
                l(6) =   2
     Q(r) pseudized with  6 coefficients,  rinner =    1.000   1.000   1.000
     Sum         709     345    117                11849     4093     791

     Using Slab Decomposition



     bravais-lattice index     =            3
                                                       1.000   1.000

     atomic species   valence    mass     pseudopotential
        Nb            13.00    92.90600     Nb( 1.00)

     48 Sym. Ops., with inversion, found



   Cartesian axes

     site n.     atom                  positions (alat units)
     lattice parameter (alat)  =       6.2350  a.u.
     unit-cell volume          =     121.1935 (a.u.)^3
     number of atoms/cell      =            1
     number of atomic types    =            1
     number of electrons       =        13.00
     number of Kohn-Sham states=           11
         1           Nb  tau(   1) = (   0.0000000   0.0000000   0.0000000  )

     number of k points=    72  Marzari-Vanderbilt smearing, width (Ry)=  0.0200
                       cart. coord. in units 2pi/alat
     kinetic-energy cutoff     =      40.0000  Ry
     charge density cutoff     =     320.0000  Ry
     scf convergence threshold =      1.0E-10
     mixing beta               =       0.7000
     number of iterations used =            8  plain     mixing
     Exchange-correlation= SLA  PW   PBE  PBE
        k(    1) = (   0.0000000   0.0000000   0.0000000), wk =   0.0011574
        k(    2) = (   0.0000000  -0.0833333   0.0833333), wk =   0.0138889
        k(    3) = (   0.0000000  -0.1666667   0.1666667), wk =   0.0138889
        k(    4) = (   0.0000000  -0.2500000   0.2500000), wk =   0.0138889
        k(    5) = (   0.0000000  -0.3333333   0.3333333), wk =   0.0138889
        k(    6) = (   0.0000000  -0.4166667   0.4166667), wk =   0.0138889
        k(    7) = (   0.0000000   0.5000000  -0.5000000), wk =   0.0069444
                           (   1   4   3   4   0   0   0)

     celldm(1)=   6.235000  celldm(2)=   0.000000  celldm(3)=   0.000000
     celldm(4)=   0.000000  celldm(5)=   0.000000  celldm(6)=   0.000000

        k(    8) = (  -0.0833333  -0.0833333   0.1666667), wk =   0.0277778
        k(    9) = (  -0.0833333  -0.1666667   0.2500000), wk =   0.0555556
        k(   10) = (  -0.0833333  -0.2500000   0.3333333), wk =   0.0555556
        k(   11) = (  -0.0833333  -0.3333333   0.4166667), wk =   0.0555556
        k(   12) = (  -0.0833333   0.5833333  -0.5000000), wk =   0.0555556
        k(   13) = (  -0.1666667  -0.1666667   0.3333333), wk =   0.0277778
        k(   14) = (  -0.1666667  -0.2500000   0.4166667), wk =   0.0555556
     crystal axes: (cart. coord. in units of alat)
               a(1) = (   0.500000   0.500000   0.500000 )  
               a(2) = (  -0.500000   0.500000   0.500000 )  
               a(3) = (  -0.500000  -0.500000   0.500000 )  

     reciprocal axes: (cart. coord. in units 2 pi/alat)
               b(1) = (  1.000000  0.000000  1.000000 )  
        k(   15) = (  -0.1666667   0.6666667  -0.5000000), wk =   0.0555556
        k(   16) = (  -0.1666667   0.5833333  -0.4166667), wk =   0.0277778
        k(   17) = (  -0.2500000   0.7500000  -0.5000000), wk =   0.0277778
        k(   18) = (  -0.2500000   0.6666667  -0.4166667), wk =   0.0555556
        k(   19) = (  -0.3333333   0.6666667  -0.3333333), wk =   0.0092593
        k(   20) = (   0.0000000   0.0000000   0.1666667), wk =   0.0069444
        k(   21) = (   0.0000000  -0.0833333   0.2500000), wk =   0.0277778
        k(   22) = (   0.0000000  -0.1666667   0.3333333), wk =   0.0277778
               b(2) = ( -1.000000  1.000000  0.000000 )  
               b(3) = (  0.000000 -1.000000  1.000000 )  


     PseudoPot. # 1 for Nb read from file:
     ./pseudo/nb_pbe_v1.uspp.F.UPF
     MD5 check sum: 573aab8a2fa660278ed4a62cd769473f
     Pseudo is Ultrasoft + core correction, Zval = 13.0
     Generated by new atomic code, or converted to UPF format
        k(   23) = (   0.0000000  -0.2500000   0.4166667), wk =   0.0277778
        k(   24) = (   0.0000000  -0.3333333   0.5000000), wk =   0.0277778
        k(   25) = (   0.0000000   0.5833333  -0.4166667), wk =   0.0138889
        k(   26) = (  -0.0833333  -0.0833333   0.3333333), wk =   0.0277778
        k(   27) = (  -0.0833333  -0.1666667   0.4166667), wk =   0.0555556
        k(   28) = (  -0.0833333  -0.2500000   0.5000000), wk =   0.0555556
        k(   29) = (  -0.0833333   0.6666667  -0.4166667), wk =   0.0555556
     Using radial grid of  887 points,  6 beta functions with: 
                l(1) =   0
                l(2) =   0
                l(3) =   1
                l(4) =   1
                l(5) =   2
                l(6) =   2
        k(   30) = (  -0.1666667   0.1666667   0.1666667), wk =   0.0092593
        k(   31) = (  -0.1666667  -0.1666667   0.5000000), wk =   0.0277778
        k(   32) = (  -0.1666667   0.7500000  -0.4166667), wk =   0.0555556
        k(   33) = (  -0.1666667   0.6666667  -0.3333333), wk =   0.0277778
        k(   34) = (  -0.2500000   0.2500000   0.1666667), wk =   0.0277778
        k(   35) = (  -0.2500000   0.7500000  -0.3333333), wk =   0.0277778
        k(   36) = (  -0.3333333   0.3333333   0.1666667), wk =   0.0277778
     Q(r) pseudized with  6 coefficients,  rinner =    1.000   1.000   1.000
                                                       1.000   1.000

     atomic species   valence    mass     pseudopotential
        Nb            13.00    92.90600     Nb( 1.00)

     48 Sym. Ops., with inversion, found



        k(   37) = (  -0.3333333   0.2500000   0.2500000), wk =   0.0277778
        k(   38) = (   0.5833333  -0.5833333   0.1666667), wk =   0.0277778
        k(   39) = (   0.5833333  -0.6666667   0.2500000), wk =   0.0555556
        k(   40) = (   0.5000000  -0.5000000   0.1666667), wk =   0.0138889
        k(   41) = (   0.5000000  -0.5833333   0.2500000), wk =   0.0555556
   Cartesian axes

     site n.     atom                  positions (alat units)
         1           Nb  tau(   1) = (   0.0000000   0.0000000   0.0000000  )

     number of k points=    72  Marzari-Vanderbilt smearing, width (Ry)=  0.0200
        k(   42) = (   0.5000000  -0.6666667   0.3333333), wk =   0.0277778
        k(   43) = (   0.4166667  -0.5833333   0.3333333), wk =   0.0277778
        k(   44) = (   0.0000000   0.0000000   0.3333333), wk =   0.0069444
        k(   45) = (   0.0000000  -0.0833333   0.4166667), wk =   0.0277778
        k(   46) = (   0.0000000  -0.1666667   0.5000000), wk =   0.0277778
                       cart. coord. in units 2pi/alat
        k(    1) = (   0.0000000   0.0000000   0.0000000), wk =   0.0011574
        k(    2) = (   0.0000000  -0.0833333   0.0833333), wk =   0.0138889
        k(    3) = (   0.0000000  -0.1666667   0.1666667), wk =   0.0138889
        k(    4) = (   0.0000000  -0.2500000   0.2500000), wk =   0.0138889
        k(   47) = (   0.0000000  -0.2500000   0.5833333), wk =   0.0277778
        k(   48) = (   0.0000000   0.6666667  -0.3333333), wk =   0.0138889
        k(   49) = (  -0.0833333  -0.0833333   0.5000000), wk =   0.0277778
        k(   50) = (  -0.0833333  -0.1666667   0.5833333), wk =   0.0555556
        k(   51) = (  -0.0833333   0.7500000  -0.3333333), wk =   0.0555556
        k(   52) = (  -0.1666667   0.8333333  -0.3333333), wk =   0.0277778
        k(    5) = (   0.0000000  -0.3333333   0.3333333), wk =   0.0138889
        k(    6) = (   0.0000000  -0.4166667   0.4166667), wk =   0.0138889
        k(    7) = (   0.0000000   0.5000000  -0.5000000), wk =   0.0069444
        k(    8) = (  -0.0833333  -0.0833333   0.1666667), wk =   0.0277778
        k(    9) = (  -0.0833333  -0.1666667   0.2500000), wk =   0.0555556
        k(   10) = (  -0.0833333  -0.2500000   0.3333333), wk =   0.0555556
        k(   53) = (  -0.1666667   0.7500000  -0.2500000), wk =   0.0277778
        k(   54) = (   0.6666667  -0.6666667   0.3333333), wk =   0.0092593
        k(   55) = (   0.5833333  -0.5833333   0.3333333), wk =   0.0277778
        k(   56) = (   0.5000000  -0.5000000   0.3333333), wk =   0.0138889
        k(   57) = (   0.5000000  -0.5833333   0.4166667), wk =   0.0277778
        k(   58) = (   0.0000000   0.0000000   0.5000000), wk =   0.0069444
        k(   11) = (  -0.0833333  -0.3333333   0.4166667), wk =   0.0555556
        k(   12) = (  -0.0833333   0.5833333  -0.5000000), wk =   0.0555556
        k(   13) = (  -0.1666667  -0.1666667   0.3333333), wk =   0.0277778
        k(   14) = (  -0.1666667  -0.2500000   0.4166667), wk =   0.0555556
        k(   15) = (  -0.1666667   0.6666667  -0.5000000), wk =   0.0555556
        k(   16) = (  -0.1666667   0.5833333  -0.4166667), wk =   0.0277778
        k(   17) = (  -0.2500000   0.7500000  -0.5000000), wk =   0.0277778
        k(   59) = (   0.0000000  -0.0833333   0.5833333), wk =   0.0277778
        k(   60) = (   0.0000000  -0.1666667   0.6666667), wk =   0.0277778
        k(   61) = (   0.0000000   0.7500000  -0.2500000), wk =   0.0138889
        k(   62) = (  -0.0833333  -0.0833333   0.6666667), wk =   0.0277778
        k(   63) = (  -0.0833333   0.8333333  -0.2500000), wk =   0.0555556
        k(   64) = (  -0.1666667   0.8333333  -0.1666667), wk =   0.0092593
        k(   65) = (   0.5000000  -0.5000000   0.5000000), wk =   0.0023148
        k(   66) = (   0.0000000   0.0000000   0.6666667), wk =   0.0069444
        k(   67) = (   0.0000000  -0.0833333   0.7500000), wk =   0.0277778
        k(   68) = (   0.0000000   0.8333333  -0.1666667), wk =   0.0138889
        k(   69) = (  -0.0833333   0.9166667  -0.1666667), wk =   0.0277778
        k(   70) = (   0.0000000   0.0000000   0.8333333), wk =   0.0069444
        k(   71) = (   0.0000000   0.9166667  -0.0833333), wk =   0.0138889
        k(   72) = (   0.0000000   0        k(   18) = (  -0.2500000   0.6666667  -0.4166667), wk =   0.0555556
        k(   19) = (  -0.3333333   0.6666667  -0.3333333), wk =   0.0092593
        k(   20) = (   0.0000000   0.0000000   0.1666667), wk =   0.0069444
        k(   21) = (   0.0000000  -0.0833333   0.2500000), wk =   0.0277778
        k(   22) = (   0.0000000  -0.1666667   0.3333333), wk =   0.0277778
        k(   23) = (   0.0000000  -0.2500000   0.4166667), wk =   0.0277778
        k(   24) = (   0.0000000  -0.3333333   0.5000000), wk =   0.0277778
        k(   25) = (   0.0000000   0.5833333  -0.4166667), wk =   0.0138889
        k(   26) = (  -0.0833333  -0.0833333   0.3333333), wk =   0.0277778
        k(   27) = (  -0.0833333  -0.1666667   0.4166667), wk =   0.0555556
        k(   28) = (  -0.0833333  -0.2500000   0.5000000), wk =   0.0555556
        k(   29) = (  -0.0833333   0.6666667  -0.4166667), wk =   0.0555556
        k(   30) = (  -0.1666667   0.1666667   0.1666667), wk =   0.0092593
        k(   31) = (  -0.1666667  -0.0000000  -1.0000000), wk =   0.0011574
.1666667   0.5000000), wk =   0.0277778
        k(   32) = (  -0.1666667   0.7500000  -0.4166667), wk =   0.0555556
        k(   33) = (  -0.1666667   0.6666667  -0.3333333), wk =   0.0277778
        k(   34) = (  -0.2500000   0.2500000   0.1666667), wk =   0.0277778
        k(   35) = (  -0.2500000   0.7500000  -0.3333333), wk =   0.0277778
        k(   36) = (  -0.3333333   0.3333333   0.1666667), wk =   0.0277778
        k(   37) = (  -0.3333333   0.2500000   0.2500000), wk =   0.0277778
        k(   38) = (   0.5833333  -0.5833333   0.1666667), wk =   0.0277778
        k(   39) = (   0.5833333  -0.6666667   0.2500000), wk =   0.0555556
        k(   40) = (   0.5000000  -0.5000000   0.1666667), wk =   0.0138889
        k(   41) = (   0.5000000  -0.5833333   0.2500000), wk =   0.0555556
        k(   42) = (   0.5000000  -0.6666667   0.3333333), wk =   0.0277778
        k(   43) = (   0.4166667  -0.5833333   0.3333333), wk =   0.0277778
        k(   44) = (   0.0000000   0.0000000   0.3333333), wk =   0.0069444
        k(   45) = (   0.0000000  -0.0833333   0.4166667), wk =   0.0277778
        k(   46) = (   0.0000000  -0.1666667   0.5000000), wk =   0.0277778
        k(   47) = (   0.0000000  -0.2500000   0.5833333), wk =   0.0277778
        k(   48) = (   0.0000000   0.6666667  -0.3333333), wk =   0.0138889
        k(   49) = (  -0.0833333  -0.0833333   0.5000000), wk =   0.0277778
        k(   50) = (  -0.0833333  -0.1666667   0.5833333), wk =   0.0555556
        k(   51) = (  -0.0833333   0.7500000  -0.3333333), wk =   0.0555556
        k(   52) = (  -0.1666667   0.8333333  -0.3333333), wk =   0.0277778
        k(   53) = (  -0.1666667   0.7500000  -0.2500000), wk =   0.0277778
        k(   54) = (   0.6666667  -0.6666667   0.3333333), wk =   0.0092593
        k(   55) = (   0.5833333  -0.5833333   0.3333333), wk =   0.0277778
        k(   56) = (   0.5000000  -0.5000000   0.3333333), wk =   0.0138889
        k(   57) = (   0.5000000  -0.5833333   0.4166667), wk =   0.0277778

        k(   58) = (   0.0000000   0.0000000   0.5000000), wk =   0.0069444
        k(   59) = (   0.0000000  -0.0833333   0.5833333), wk =   0.0277778
        k(   60) = (   0.0000000  -0.1666667   0.6666667), wk =   0.0277778
        k(   61) = (   0.0000000   0.7500000  -0.2500000), wk =   0.0138889
        k(   62) = (  -0.0833333  -0.0833333   0.6666667), wk =   0.0277778
        k(   63) = (  -0.0833333   0.8333333  -0.2500000), wk =   0.0555556
     Dense  grid:    11849 G-vectors     FFT dimensions: (  32,  32,  32)
        k(   64) = (  -0.1666667   0.8333333  -0.1666667), wk =   0.0092593
        k(   65) = (   0.5000000  -0.5000000   0.5000000), wk =   0.0023148
        k(   66) = (   0.0000000   0.0000000   0.6666667), wk =   0.0069444

     Smooth grid:     4093 G-vectors     FFT dimensions: (  24,  24,  24)
        k(   67) = (   0.0000000  -0.0833333   0.7500000), wk =   0.0277778
        k(   68) = (   0.0000000   0.8333333  -0.1666667), wk =   0.0138889

     Estimated max dynamical RAM per process >      48.85 MB
        k(   69) = (  -0.0833333   0.9166667  -0.1666667), wk =   0.0277778
        k(   70) = (   0.0000000   0.0000000   0.8333333), wk =   0.0069444
        k(   71) = (   0.0000000   0.9166667  -0.0833333), wk =   0.0138889
        k(   72) = (   0.0000000   0.0000000  -1.0000000), wk =   0.0011574

     Dense  grid:    11849 G-vectors     FFT dimensions: (  32,  32,  32)

     Smooth grid:     4093 G-vectors     FFT dimensions: (  24,  24,  24)

     Estimated max dynamical RAM per process >      48.85 MB

     Check: negative core charge=   -0.000002

     Initial potential from superposition of free atoms

     starting charge      12.9973, renormalised to      13.0000

     Check: negative core charge=   -0.000002

     Initial potential from superposition of free atoms

     Check: negative core charge=   -0.000002

     Initial potential from superposition of free atoms

     starting charge      12.9973, renormalised to      13.0000

     Check: negative core charge=   -0.000002

     Initial potential from superposition of free atoms

     starting charge      12.9973, renormalised to      13.0000

     starting charge      12.9973, renormalised to      13.0000
     Starting wfcs are   13 randomized atomic wfcs
     Starting wfcs are   13 randomized atomic wfcs
     Starting wfcs are   13 randomized atomic wfcs
     Starting wfcs are   13 randomized atomic wfcs

     total cpu time spent up to now is        0.4 secs

     Self-consistent Calculation

     iteration #  1     ecut=    40.00 Ry     beta= 0.70
     Davidson diagonalization with overlap

     total cpu time spent up to now is        0.4 secs

     Self-consistent Calculation

     iteration #  1     ecut=    40.00 Ry     beta= 0.70
     Davidson diagonalization with overlap

     total cpu time spent up to now is        0.4 secs

     Self-consistent Calculation

     iteration #  1     ecut=    40.00 Ry     beta= 0.70
     Davidson diagonalization with overlap

     total cpu time spent up to now is        0.4 secs

     Self-consistent Calculation

     iteration #  1     ecut=    40.00 Ry     beta= 0.70
     Davidson diagonalization with overlap
     ethr =  1.00E-02,  avg # of iterations =  3.5
     ethr =  1.00E-02,  avg # of iterations =  3.5
     ethr =  1.00E-02,  avg # of iterations =  3.5
     ethr =  1.00E-02,  avg # of iterations =  3.5

     Threshold (ethr) on eigenvalues was too large:
     Diagonalizing with lowered threshold

     Davidson diagonalization with overlap

     Threshold (ethr) on eigenvalues was too large:
     Diagonalizing with lowered threshold

     Davidson diagonalization with overlap

     Threshold (ethr) on eigenvalues was too large:
     Diagonalizing with lowered threshold

     Davidson diagonalization with overlap

     Threshold (ethr) on eigenvalues was too large:
     Diagonalizing with lowered threshold

     Davidson diagonalization with overlap
     ethr =  6.63E-04,  avg # of iterations =  1.1
     ethr =  6.63E-04,  avg # of iterations =  1.1
     ethr =  6.63E-04,  avg # of iterations =  1.1
     ethr =  6.63E-04,  avg # of iterations =  1.1

     total cpu time spent up to now is        1.1 secs

     total energy              =    -117.91200116 Ry
     estimated scf accuracy    <       0.08802675 Ry

     iteration #  2     ecut=    40.00 Ry     beta= 0.70
     Davidson diagonalization with overlap

     total cpu time spent up to now is        1.1 secs

     total energy              =    -117.91200116 Ry
     estimated scf accuracy    <       0.08802675 Ry

     iteration #  2     ecut=    40.00 Ry     beta= 0.70
     Davidson diagonalization with overlap

     total cpu time spent up to now is        1.1 secs

     total energy              =    -117.91200116 Ry
     estimated scf accuracy    <       0.08802675 Ry

     iteration #  2     ecut=    40.00 Ry     beta= 0.70
     Davidson diagonalization with overlap

     total cpu time spent up to now is        1.2 secs

     total energy              =    -117.91200116 Ry
     estimated scf accuracy    <       0.08802675 Ry

     iteration #  2     ecut=    40.00 Ry     beta= 0.70
     Davidson diagonalization with overlap
     ethr =  6.77E-04,  avg # of iterations =  2.0
     ethr =  6.77E-04,  avg # of iterations =  2.0
     ethr =  6.77E-04,  avg # of iterations =  2.0

     total cpu time spent up to now is        1.5 secs

     total energy              =    -117.93189300 Ry
     estimated scf accuracy    <       0.00494976 Ry

     iteration #  3     ecut=    40.00 Ry     beta= 0.70
     Davidson diagonalization with overlap
     ethr =  6.77E-04,  avg # of iterations =  2.0

     total cpu time spent up to now is        1.6 secs

     total energy              =    -117.93189300 Ry
     estimated scf accuracy    <       0.00494976 Ry

     iteration #  3     ecut=    40.00 Ry     beta= 0.70
     Davidson diagonalization with overlap

     total cpu time spent up to now is        1.6 secs

     total energy              =    -117.93189300 Ry
     estimated scf accuracy    <       0.00494976 Ry

     iteration #  3     ecut=    40.00 Ry     beta= 0.70
     Davidson diagonalization with overlap

     total cpu time spent up to now is        1.7 secs

     total energy              =    -117.93189300 Ry
     estimated scf accuracy    <       0.00494976 Ry

     iteration #  3     ecut=    40.00 Ry     beta= 0.70
     Davidson diagonalization with overlap
     ethr =  3.81E-05,  avg # of iterations =  2.5
     ethr =  3.81E-05,  avg # of iterations =  2.5
     ethr =  3.81E-05,  avg # of iterations =  2.5

     total cpu time spent up to now is        2.0 secs

     total energy              =    -117.93265252 Ry
     estimated scf accuracy    <       0.00013870 Ry

     iteration #  4     ecut=    40.00 Ry     beta= 0.70
     Davidson diagonalization with overlap
     ethr =  3.81E-05,  avg # of iterations =  2.5

     total cpu time spent up to now is        2.0 secs

     total energy              =    -117.93265252 Ry
     estimated scf accuracy    <       0.00013870 Ry

     iteration #  4     ecut=    40.00 Ry     beta= 0.70
     Davidson diagonalization with overlap

     total cpu time spent up to now is        2.0 secs

     total energy              =    -117.93265252 Ry
     estimated scf accuracy    <       0.00013870 Ry

     iteration #  4     ecut=    40.00 Ry     beta= 0.70
     Davidson diagonalization with overlap

     total cpu time spent up to now is        2.1 secs

     total energy              =    -117.93265252 Ry
     estimated scf accuracy    <       0.00013870 Ry

     iteration #  4     ecut=    40.00 Ry     beta= 0.70
     Davidson diagonalization with overlap
     ethr =  1.07E-06,  avg # of iterations =  3.6

     total cpu time spent up to now is        2.4 secs

     total energy              =    -117.93266189 Ry
     estimated scf accuracy    <       0.00000637 Ry

     iteration #  5     ecut=    40.00 Ry     beta= 0.70
     Davidson diagonalization with overlap
     ethr =  1.07E-06,  avg # of iterations =  3.6
     ethr =  1.07E-06,  avg # of iterations =  3.6
     ethr =  1.07E-06,  avg # of iterations =  3.6

     total cpu time spent up to now is        2.5 secs

     total energy              =    -117.93266189 Ry
     estimated scf accuracy    <       0.00000637 Ry

     iteration #  5     ecut=    40.00 Ry     beta= 0.70
     Davidson diagonalization with overlap

     total cpu time spent up to now is        2.5 secs

     total energy              =    -117.93266189 Ry
     estimated scf accuracy    <       0.00000637 Ry

     iteration #  5     ecut=    40.00 Ry     beta= 0.70
     Davidson diagonalization with overlap

     total cpu time spent up to now is        2.5 secs

     total energy              =    -117.93266189 Ry
     estimated scf accuracy    <       0.00000637 Ry

     iteration #  5     ecut=    40.00 Ry     beta= 0.70
     Davidson diagonalization with overlap
     ethr =  4.90E-08,  avg # of iterations =  2.1

     total cpu time spent up to now is        2.8 secs

     total energy              =    -117.93266402 Ry
     estimated scf accuracy    <       0.00000206 Ry

     iteration #  6     ecut=    40.00 Ry     beta= 0.70
     Davidson diagonalization with overlap
     ethr =  4.90E-08,  avg # of iterations =  2.1
     ethr =  4.90E-08,  avg # of iterations =  2.1
     ethr =  4.90E-08,  avg # of iterations =  2.1

     total cpu time spent up to now is        2.9 secs

     total energy              =    -117.93266402 Ry
     estimated scf accuracy    <       0.00000206 Ry

     iteration #  6     ecut=    40.00 Ry     beta= 0.70
     Davidson diagonalization with overlap

     total cpu time spent up to now is        2.9 secs

     total energy              =    -117.93266402 Ry
     estimated scf accuracy    <       0.00000206 Ry

     iteration #  6     ecut=    40.00 Ry     beta= 0.70
     Davidson diagonalization with overlap

     total cpu time spent up to now is        3.0 secs

     total energy              =    -117.93266402 Ry
     estimated scf accuracy    <       0.00000206 Ry

     iteration #  6     ecut=    40.00 Ry     beta= 0.70
     Davidson diagonalization with overlap
     ethr =  1.58E-08,  avg # of iterations =  2.0

     total cpu time spent up to now is        3.2 secs

     total energy              =    -117.93266437 Ry
     estimated scf accuracy    <          8.5E-09 Ry

     iteration #  7     ecut=    40.00 Ry     beta= 0.70
     Davidson diagonalization with overlap
     ethr =  1.58E-08,  avg # of iterations =  2.0
     ethr =  1.58E-08,  avg # of iterations =  2.0
     ethr =  1.58E-08,  avg # of iterations =  2.0

     total cpu time spent up to now is        3.4 secs

     total energy              =    -117.93266437 Ry
     estimated scf accuracy    <          8.5E-09 Ry

     iteration #  7     ecut=    40.00 Ry     beta= 0.70
     Davidson diagonalization with overlap

     total cpu time spent up to now is        3.4 secs

     total energy              =    -117.93266437 Ry
     estimated scf accuracy    <          8.5E-09 Ry

     iteration #  7     ecut=    40.00 Ry     beta= 0.70
     Davidson diagonalization with overlap

     total cpu time spent up to now is        3.5 secs

     total energy              =    -117.93266437 Ry
     estimated scf accuracy    <          8.5E-09 Ry

     iteration #  7     ecut=    40.00 Ry     beta= 0.70
     Davidson diagonalization with overlap
     ethr =  6.55E-11,  avg # of iterations =  3.1

     total cpu time spent up to now is        3.7 secs

     total energy              =    -117.93266438 Ry
     estimated scf accuracy    <          2.0E-09 Ry

     iteration #  8     ecut=    40.00 Ry     beta= 0.70
     Davidson diagonalization with overlap
     ethr =  6.55E-11,  avg # of iterations =  3.1
     ethr =  6.55E-11,  avg # of iterations =  3.1
     ethr =  6.55E-11,  avg # of iterations =  3.1

     total cpu time spent up to now is        3.9 secs

     total energy              =    -117.93266438 Ry
     estimated scf accuracy    <          2.0E-09 Ry

     iteration #  8     ecut=    40.00 Ry     beta= 0.70
     Davidson diagonalization with overlap

     total cpu time spent up to now is        3.9 secs

     total energy              =    -117.93266438 Ry
     estimated scf accuracy    <          2.0E-09 Ry

     iteration #  8     ecut=    40.00 Ry     beta= 0.70
     Davidson diagonalization with overlap

     total cpu time spent up to now is        3.9 secs

     total energy              =    -117.93266438 Ry
     estimated scf accuracy    <          2.0E-09 Ry

     iteration #  8     ecut=    40.00 Ry     beta= 0.70
     Davidson diagonalization with overlap
     ethr =  1.51E-11,  avg # of iterations =  1.8

     total cpu time spent up to now is        4.1 secs

     total energy              =    -117.93266437 Ry
     estimated scf accuracy    <          4.2E-10 Ry

     iteration #  9     ecut=    40.00 Ry     beta= 0.70
     Davidson diagonalization with overlap
     ethr =  1.51E-11,  avg # of iterations =  1.8
     ethr =  1.51E-11,  avg # of iterations =  1.8
     ethr =  1.51E-11,  avg # of iterations =  1.8

     total cpu time spent up to now is        4.4 secs

     total energy              =    -117.93266437 Ry
     estimated scf accuracy    <          4.2E-10 Ry

     iteration #  9     ecut=    40.00 Ry     beta= 0.70
     Davidson diagonalization with overlap

     total cpu time spent up to now is        4.5 secs

     total energy              =    -117.93266437 Ry
     estimated scf accuracy    <          4.2E-10 Ry

     iteration #  9     ecut=    40.00 Ry     beta= 0.70
     Davidson diagonalization with overlap

     total cpu time spent up to now is        4.5 secs

     total energy              =    -117.93266437 Ry
     estimated scf accuracy    <          4.2E-10 Ry

     iteration #  9     ecut=    40.00 Ry     beta= 0.70
     Davidson diagonalization with overlap
     ethr =  3.23E-12,  avg # of iterations =  2.9

     total cpu time spent up to now is        4.6 secs

     total energy              =    -117.93266437 Ry
     estimated scf accuracy    <          6.5E-10 Ry

     iteration # 10     ecut=    40.00 Ry     beta= 0.70
     Davidson diagonalization with overlap
     ethr =  3.23E-12,  avg # of iterations =  2.9

     total cpu time spent up to now is        4.8 secs

     total energy              =    -117.93266437 Ry
     estimated scf accuracy    <          6.5E-10 Ry

     iteration # 10     ecut=    40.00 Ry     beta= 0.70
     Davidson diagonalization with overlap
     ethr =  3.23E-12,  avg # of iterations =  2.9
     ethr =  3.23E-12,  avg # of iterations =  2.9

     total cpu time spent up to now is        4.9 secs

     total energy              =    -117.93266437 Ry
     estimated scf accuracy    <          6.5E-10 Ry

     iteration # 10     ecut=    40.00 Ry     beta= 0.70
     Davidson diagonalization with overlap
     ethr =  3.23E-12,  avg # of iterations =  2.0

     total cpu time spent up to now is        5.0 secs

     total energy              =    -117.93266437 Ry
     estimated scf accuracy    <          6.5E-10 Ry

     iteration # 10     ecut=    40.00 Ry     beta= 0.70
     Davidson diagonalization with overlap

     total cpu time spent up to now is        5.0 secs

     End of self-consistent calculation

          k = 0.0000 0.0000 0.0000 (   531 PWs)   bands (ev):

   -36.3323 -11.6355 -11.6355 -11.6355  12.1110  18.3914  18.3914  18.3914
    21.3086  21.3086  32.2215

          k = 0.0000-0.0833 0.0833 (   539 PWs)   bands (ev):

   -36.3160 -11.7342 -11.6655 -11.6363  12.3954  18.2168  18.3447  18.6661
    21.0543  21.3101  32.4489

          k = 0.0000-0.1667 0.1667 (   523 PWs)   bands (ev):

   -36.2711 -11.9979 -11.7465 -11.6386  13.1560  17.7779  18.1284  19.4667
    20.7224  21.3435  32.8114

          k = 0.0000-0.2500 0.2500 (   525 PWs)   bands (ev):

   -36.2092 -12.3455 -11.8554 -11.6417  14.0466  17.2491  17.9251  20.7171
    20.7920  21.4613  32.3781

          k = 0.0000-0.3333 0.3333 (   519 PWs)   bands (ev):

   -36.1465 -12.6801 -11.9621 -11.6450  14.4564  16.7811  18.4502  21.1193
    21.6767  22.2584  31.1502

          k = 0.0000-0.4167 0.4167 (   523 PWs)   bands (ev):

   -36.1001 -12.9177 -12.0389 -11.6475  14.3796  16.4684  19.6147  21.3637
    21.9160  23.7389  30.8470

          k = 0.0000 0.5000-0.5000 (   512 PWs)   bands (ev):

   -36.0830 -13.0032 -12.0667 -11.6484  14.2992  16.3593  20.3278  21.3443
    22.0269  24.4255  30.1566

          k =-0.0833-0.0833 0.1667 (   523 PWs)   bands (ev):

   -36.2853 -11.9153 -11.6988 -11.6601  12.9241  17.9888  18.0902  19.2533
    20.6964  21.3966  32.8622

          k =-0.0833-0.1667 0.2500 (   523 PWs)   bands (ev):

   -36.2319 -12.2087 -11.7968 -11.6721  13.8032  17.5142  17.7692  20.3291
    20.5177  21.5697  33.0837

          k =-0.0833-0.2500 0.3333 (   521 PWs)   bands (ev):

   -36.1695 -12.5315 -11.9203 -11.6779  14.5410  17.0140  17.7924  20.7128
    21.7485  21.8411  32.0005

          k =-0.0833-0.3333 0.4167 (   516 PWs)   bands (ev):

   -36.1149 -12.8013 -12.0271 -11.6821  14.6508  16.6389  18.6238  21.1084
    21.9804  23.4220  30.7449

          k =-0.0833 0.5833-0.5000 (   518 PWs)   bands (ev):

   -36.0831 -12.9537 -12.0882 -11.6845  14.5225  16.4403  19.5626  21.2595
    22.2570  24.6240  29.9652

          k =-0.1667-0.1667 0.3333 (   518 PWs)   bands (ev):

   -36.1780 -12.4592 -11.8947 -11.7194  14.6578  17.1722  17.3791  20.4318
    21.7105  21.9287  32.7643

          k =-0.1667-0.2500 0.4167 (   515 PWs)   bands (ev):

   -36.1235 -12.6827 -12.0379 -11.7416  15.1677  16.7901  17.6087  20.6986
    22.0497  23.4970  31.3794

          k =-0.1667 0.6667-0.5000 (   516 PWs)   bands (ev):

   -36.0833 -12.8342 -12.1569 -11.7515  15.1120  16.6003  18.3398  21.0635
    22.2187  25.1427  30.0380

          k =-0.1667 0.5833-0.4167 (   519 PWs)   bands (ev):

   -36.0685 -12.8876 -12.2023 -11.7545  15.0278  16.5400  18.7323  21.1556
    22.4108  25.9397  29.2826

          k =-0.2500 0.7500-0.5000 (   521 PWs)   bands (ev):

   -36.0834 -12.7560 -12.2140 -11.7806  15.5903  16.6345  17.6845  20.9544
    22.1209  25.4153  30.1068

          k =-0.2500 0.6667-0.4167 (   517 PWs)   bands (ev):

   -36.0601 -12.7580 -12.3629 -11.7962  15.6351  16.7010  17.8193  21.2988
    22.1522  27.1193  28.8185

          k =-0.3333 0.6667-0.3333 (   523 PWs)   bands (ev):

   -36.0516 -12.5862 -12.5862 -11.8095  15.8484  17.1646  17.1646  21.7861
    21.7861  28.2227  29.1142

          k = 0.0000 0.0000 0.1667 (   527 PWs)   bands (ev):

   -36.2999 -11.7694 -11.6958 -11.6958  12.6724  18.3440  18.3440  18.6485
    20.4897  21.5951  32.9990

          k = 0.0000-0.0833 0.2500 (   522 PWs)   bands (ev):

   -36.2559 -12.0047 -11.7780 -11.7144  13.4137  18.0108  18.1977  19.3664
    19.9096  21.8234  33.4550

          k = 0.0000-0.1667 0.3333 (   519 PWs)   bands (ev):

   -36.1952 -12.3387 -11.8882 -11.7153  14.2922  17.5096  17.8474  19.9992
    20.6169  22.0143  32.7017

          k = 0.0000-0.2500 0.4167 (   521 PWs)   bands (ev):

   -36.1337 -12.6622 -11.9961 -11.7148  14.7075  17.0587  18.0258  20.5352
    22.1696  22.2298  31.3347

          k = 0.0000-0.3333 0.5000 (   523 PWs)   bands (ev):

   -36.0883 -12.8924 -12.0739 -11.7143  14.6154  16.7557  18.7492  20.8569
    22.7490  23.6694  30.4052

          k = 0.0000 0.5833-0.4167 (   520 PWs)   bands (ev):

   -36.0715 -12.9753 -12.1020 -11.7141  14.5259  16.6498  19.1769  20.7934
    23.2082  24.3695  29.9440

          k =-0.0833-0.0833 0.3333 (   520 PWs)   bands (ev):

   -36.2045 -12.2334 -11.8714 -11.7700  14.2295  17.7703  17.9377  19.5136
    20.2294  22.1386  33.5069

          k =-0.0833-0.1667 0.4167 (   522 PWs)   bands (ev):

   -36.1446 -12.5179 -11.9971 -11.7839  14.9564  17.2204  17.7616  19.8340
    21.5835  22.4414  32.0396

          k =-0.0833-0.2500 0.5000 (   520 PWs)   bands (ev):

   -36.0921 -12.7626 -12.1088 -11.7854  15.0818  17.0217  17.8791  20.3830
    22.4107  23.6213  30.9080

          k =-0.0833 0.6667-0.4167 (   521 PWs)   bands (ev):

   -36.0616 -12.9020 -12.1728 -11.7849  14.9288  16.9293  18.2493  20.4871
    23.1183  24.9821  29.8588

          k =-0.1667 0.1667 0.1667 (   516 PWs)   bands (ev):

   -36.2453 -12.1664 -11.7067 -11.7067  13.6280  17.5745  17.5745  20.3519
    21.0826  21.0826  33.3403

          k =-0.1667-0.1667 0.5000 (   517 PWs)   bands (ev):

   -36.0936 -12.6793 -12.1548 -11.8161  15.5270  16.6645  17.8646  20.0958
    22.0977  23.7742  31.1704

          k =-0.1667 0.7500-0.4167 (   516 PWs)   bands (ev):

   -36.0559 -12.7816 -12.2975 -11.8249  15.6144  16.6757  17.7126  20.5889
    22.3617  25.6858  29.9089

          k =-0.1667 0.6667-0.3333 (   519 PWs)   bands (ev):

   -36.0421 -12.8149 -12.3548 -11.8265  15.5251  16.9192  17.5095  20.7356
    22.6855  26.8519  28.9983

          k =-0.2500 0.2500 0.1667 (   524 PWs)   bands (ev):

   -36.1901 -12.4427 -11.8299 -11.7178  14.5506  17.0636  17.2577  21.0276
    21.4368  21.8177  33.0428

          k =-0.2500 0.7500-0.3333 (   513 PWs)   bands (ev):

   -36.0349 -12.7080 -12.5026 -11.8367  16.1614  16.5219  17.1481  21.3024
    22.1141  27.8680  28.7837

          k =-0.3333 0.3333 0.1667 (   515 PWs)   bands (ev):

   -36.1344 -12.6875 -11.9763 -11.7289  15.0373  16.6631  17.6617  21.2316
    21.7348  23.4824  31.7056

          k =-0.3333 0.2500 0.2500 (   519 PWs)   bands (ev):

   -36.1415 -12.6350 -11.9266 -11.7895  15.4168  16.7727  16.9161  21.2117
    21.7279  23.5609  32.3271

          k = 0.5833-0.5833 0.1667 (   518 PWs)   bands (ev):

   -36.0932 -12.8547 -12.0909 -11.7371  14.9437  16.4126  18.7755  21.4559
    21.9659  24.9749  30.2941

          k = 0.5833-0.6667 0.2500 (   515 PWs)   bands (ev):

   -36.0991 -12.7524 -12.0895 -11.8212  15.6283  16.5336  17.5515  21.4307
    21.9786  25.3158  30.5760

          k = 0.5000-0.5000 0.1667 (   516 PWs)   bands (ev):

   -36.0781 -12.9139 -12.1339 -11.7401  14.8547  16.3276  19.4007  21.5198
    22.0599  25.6275  29.4495

          k = 0.5000-0.5833 0.2500 (   513 PWs)   bands (ev):

   -36.0745 -12.7972 -12.2111 -11.8344  15.4907  16.4203  18.4159  21.6215
    22.0992  26.5858  29.0025

          k = 0.5000-0.6667 0.3333 (   515 PWs)   bands (ev):

   -36.0733 -12.7145 -12.2726 -11.8777  15.8612  16.7315  17.6177  21.6517
    22.0830  27.0612  28.9452

          k = 0.4167-0.5833 0.3333 (   514 PWs)   bands (ev):

   -36.0638 -12.6467 -12.3988 -11.8939  15.8631  16.8568  17.7358  21.8146
    22.0612  28.1314  28.1705

          k = 0.0000 0.0000 0.3333 (   518 PWs)   bands (ev):

   -36.2142 -12.0774 -11.8628 -11.8628  14.0962  18.4228  18.4228  18.7359
    19.3954  22.2558  34.5797

          k = 0.0000-0.0833 0.4167 (   525 PWs)   bands (ev):

   -36.1568 -12.3283 -11.9767 -11.9044  14.9092  17.6022  18.2258  19.0546
    20.4102  22.5172  32.7995

          k = 0.0000-0.1667 0.5000 (   522 PWs)   bands (ev):

   -36.0987 -12.6143 -12.0881 -11.9009  15.3224  17.1378  17.8605  19.7594
    21.9487  22.8824  31.7091

          k = 0.0000-0.2500 0.5833 (   518 PWs)   bands (ev):

   -36.0558 -12.8228 -12.1683 -11.8934  15.1636  17.3880  17.5952  19.9697
    23.4859  23.9311  30.6050

          k = 0.0000 0.6667-0.3333 (   526 PWs)   bands (ev):

   -36.0400 -12.8984 -12.1974 -11.8903  15.0381  17.5006  17.6081  19.8755
    24.2198  24.8105  29.6620

          k =-0.0833-0.0833 0.5000 (   521 PWs)   bands (ev):

   -36.1012 -12.5118 -12.1112 -11.9626  15.5332  16.8211  18.4135  19.3280
    21.3868  22.8915  32.1423

          k =-0.0833-0.1667 0.5833 (   519 PWs)   bands (ev):

   -36.0525 -12.6992 -12.2376 -11.9665  15.6708  16.5180  18.1529  19.9273
    22.3771  24.1284  31.2666

          k =-0.0833 0.7500-0.3333 (   516 PWs)   bands (ev):

   -36.0242 -12.8117 -12.3097 -11.9622  15.4166  16.8180  17.8032  20.0948
    23.3327  25.8428  29.6617

          k =-0.1667 0.8333-0.3333 (   518 PWs)   bands (ev):

   -36.0184 -12.7270 -12.4177 -11.9756  15.9780  16.1000  17.7819  20.7749
    22.4681  26.2313  29.9113

          k =-0.1667 0.7500-0.2500 (   513 PWs)   bands (ev):

   -36.0059 -12.7141 -12.5103 -11.9748  15.8313  16.3325  17.4380  21.2265
    22.6012  27.9711  28.7431

          k = 0.6667-0.6667 0.3333 (   510 PWs)   bands (ev):

   -36.1049 -12.7183 -11.9585 -11.9585  16.4266  16.5477  16.5477  21.7489
    21.7489  25.4428  31.3460

          k = 0.5833-0.5833 0.3333 (   519 PWs)   bands (ev):

   -36.0781 -12.7060 -12.1591 -11.9819  16.2454  16.4467  17.4945  21.8640
    22.0385  27.0480  29.1484

          k = 0.5000-0.5000 0.3333 (   516 PWs)   bands (ev):

   -36.0683 -12.6687 -12.2659 -11.9904  16.1461  16.4201  17.9778  21.9242
    22.1270  27.8405  28.1585

          k = 0.5000-0.5833 0.4167 (   519 PWs)   bands (ev):

   -36.0660 -12.5612 -12.3153 -12.0805  16.3549  16.8684  17.3936  22.0467
    22.1219  27.8350  28.7000

          k = 0.0000 0.0000 0.5000 (   522 PWs)   bands (ev):

   -36.1039 -12.3734 -12.0952 -12.0952  15.5344  16.9354  18.9907  18.9907
    20.5472  22.7862  32.6851

          k = 0.0000-0.0833 0.5833 (   518 PWs)   bands (ev):

   -36.0506 -12.5547 -12.2112 -12.1413  15.7882  16.2295  19.0671  19.5689
    21.7326  23.2872  32.5205

          k = 0.0000-0.1667 0.6667 (   510 PWs)   bands (ev):

   -36.0111 -12.7265 -12.2946 -12.1309  15.4441  16.1883  18.9165  19.7986
    23.2522  24.7193  30.7970

          k = 0.0000 0.7500-0.2500 (   518 PWs)   bands (ev):

   -35.9966 -12.7914 -12.3248 -12.1242  15.2635  16.2350  18.8496  19.7785
    24.0228  26.0737  29.1910

          k =-0.0833-0.0833 0.6667 (   518 PWs)   bands (ev):

   -36.0064 -12.6424 -12.3548 -12.1809  15.6227  15.7874  19.1455  20.3819
    22.4485  24.5098  31.5688

          k =-0.0833 0.8333-0.2500 (   514 PWs)   bands (ev):

   -35.9807 -12.7073 -12.4489 -12.1751  15.3113  15.7133  18.9545  20.9252
    23.2319  26.5231  29.4480

          k =-0.1667 0.8333-0.1667 (   505 PWs)   bands (ev):

   -35.9695 -12.6113 -12.6113 -12.1737  15.3972  15.3972  18.8235  22.3811
    22.3811  28.6872  28.7950

          k = 0.5000-0.5000 0.5000 (   532 PWs)   bands (ev):

   -36.0634 -12.3309 -12.3309 -12.3309  16.9324  16.9324  16.9324  22.1611
    22.1611  27.5174  29.9811

          k = 0.0000 0.0000 0.6667 (   514 PWs)   bands (ev):

   -36.0020 -12.5368 -12.3316 -12.3316  15.4999  15.6573  20.2381  20.2381
    21.9165  23.7947  32.9155

          k = 0.0000-0.0833 0.7500 (   509 PWs)   bands (ev):

   -35.9661 -12.6300 -12.4180 -12.3597  15.0498  15.3248  20.5754  20.8113
    23.0570  25.1644  30.5210

          k = 0.0000 0.8333-0.1667 (   504 PWs)   bands (ev):

   -35.9529 -12.6823 -12.4492 -12.3508  14.9004  15.1791  20.5864  20.9430
    23.8335  26.7938  28.5567

          k =-0.0833 0.9167-0.1667 (   507 PWs)   bands (ev):

   -35.9427 -12.6267 -12.5348 -12.3756  14.8000  14.9321  20.6814  22.1922
    23.2808  26.8364  28.9919

          k = 0.0000 0.0000 0.8333 (   502 PWs)   bands (ev):

   -35.9329 -12.5747 -12.5065 -12.5065  14.5949  14.7558  22.1203  22.1203
    23.1357  25.8401  29.2737

          k = 0.0000 0.9167-0.0833 (   490 PWs)   bands (ev):

   -35.9207 -12.6010 -12.5385 -12.5125  14.4607  14.5143  22.4852  22.6475
    23.6994  27.0662  27.7243

          k = 0.0000 0.0000-1.0000 (   490 PWs)   bands (ev):

   -35.9089 -12.5709 -12.5709 -12.5709  14.2872  14.2872  23.6513  23.6513
    23.6513  27.1225  27.1225

     the Fermi energy is    18.0011 ev

!    total energy              =    -117.93266437 Ry
     estimated scf accuracy    <          2.6E-13 Ry
     smearing contrib. (-TS)   =       0.00081722 Ry
     internal energy E=F+TS    =    -117.93348159 Ry

     The total energy is F=E-TS. E is the sum of the following terms:
     one-electron contribution =     -15.73376016 Ry
     hartree contribution      =      14.88974582 Ry
     xc contribution           =     -18.44785491 Ry
     ewald contribution        =     -98.64161234 Ry

     convergence has been achieved in  10 iterations

     Writing all to output data dir ./tmp/Nb_ecut40.save/

     init_run     :      0.29s CPU      0.30s WALL (       1 calls)
     electrons    :      4.46s CPU      4.69s WALL (       1 calls)

     Called by init_run:
     wfcinit      :      0.15s CPU      0.16s WALL (       1 calls)
     potinit      :      0.01s CPU      0.01s WALL (       1 calls)
     hinit0       :      0.11s CPU      0.12s WALL (       1 calls)

     Called by electrons:
     c_bands      :      3.51s CPU      3.68s WALL (      11 calls)
     sum_band     :      0.79s CPU      0.83s WALL (      11 calls)
     v_of_rho     :      0.08s CPU      0.09s WALL (      11 calls)
     newd         :      0.09s CPU      0.09s WALL (      11 calls)
     mix_rho      :      0.01s CPU      0.01s WALL (      11 calls)

     Called by c_bands:
     init_us_2    :      0.09s CPU      0.10s WALL (    1656 calls)
     init_us_2:cp :      0.09s CPU      0.10s WALL (    1656 calls)
     cegterg      :      3.37s CPU      3.53s WALL (     792 calls)

     Called by *egterg:
     cdiaghg      :      0.16s CPU      0.17s WALL (    2637 calls)
     h_psi        :      2.95s CPU      3.06s WALL (    2781 calls)
     s_psi        :      0.06s CPU      0.06s WALL (    2781 calls)
     g_psi        :      0.01s CPU      0.01s WALL (    1917 calls)

     Called by h_psi:
     h_psi:calbec :      0.07s CPU      0.07s WALL (    2781 calls)
     vloc_psi     :      2.80s CPU      2.91s WALL (    2781 calls)
     add_vuspsi   :      0.06s CPU      0.07s WALL (    2781 calls)

     General routines
     calbec       :      0.10s CPU      0.10s WALL (    3573 calls)
     fft          :      0.05s CPU      0.05s WALL (     142 calls)
     ffts         :      0.00s CPU      0.01s WALL (      22 calls)
     fftw         :      2.79s CPU      2.89s WALL (   53052 calls)
     interpolate  :      0.01s CPU      0.01s WALL (      11 calls)


     PWSCF        :      4.82s CPU      5.07s WALL


   This run was terminated on:  21: 6:56   6Mar2026            

=------------------------------------------------------------------------------=
   JOB DONE.
=------------------------------------------------------------------------------=
Note: The following floating-point exceptions are signalling: IEEE_INVALID_FLAG IEEE_DIVIDE_BY_ZERO IEEE_UNDERFLOW_FLAG
     ethr =  3.23E-12,  avg # of iterations =  2.0

     total cpu time spent up to now is        5.3 secs

     End of self-consistent calculation

          k = 0.0000 0.0000 0.0000 (   531 PWs)   bands (ev):

   -36.3323 -11.6355 -11.6355 -11.6355  12.1110  18.3914  18.3914  18.3914
    21.3086  21.3086  32.2215

          k = 0.0000-0.0833 0.0833 (   539 PWs)   bands (ev):

   -36.3160 -11.7342 -11.6655 -11.6363  12.3954  18.2168  18.3447  18.6661
    21.0543  21.3101  32.4489

          k = 0.0000-0.1667 0.1667 (   523 PWs)   bands (ev):

   -36.2711 -11.9979 -11.7465 -11.6386  13.1560  17.7779  18.1284  19.4667
    20.7224  21.3435  32.8114

          k = 0.0000-0.2500 0.2500 (   525 PWs)   bands (ev):

   -36.2092 -12.3455 -11.8554 -11.6417  14.0466  17.2491  17.9251  20.7171
    20.7920  21.4613  32.3781

          k = 0.0000-0.3333 0.3333 (   519 PWs)   bands (ev):

   -36.1465 -12.6801 -11.9621 -11.6450  14.4564  16.7811  18.4502  21.1193
    21.6767  22.2584  31.1502

          k = 0.0000-0.4167 0.4167 (   523 PWs)   bands (ev):

   -36.1001 -12.9177 -12.0389 -11.6475  14.3796  16.4684  19.6147  21.3637
    21.9160  23.7389  30.8470

          k = 0.0000 0.5000-0.5000 (   512 PWs)   bands (ev):

   -36.0830 -13.0032 -12.0667 -11.6484  14.2992  16.3593  20.3278  21.3443
    22.0269  24.4255  30.1566

          k =-0.0833-0.0833 0.1667 (   523 PWs)   bands (ev):

   -36.2853 -11.9153 -11.6988 -11.6601  12.9241  17.9888  18.0902  19.2533
    20.6964  21.3966  32.8622

          k =-0.0833-0.1667 0.2500 (   523 PWs)   bands (ev):

   -36.2319 -12.2087 -11.7968 -11.6721  13.8032  17.5142  17.7692  20.3291
    20.5177  21.5697  33.0837

          k =-0.0833-0.2500 0.3333 (   521 PWs)   bands (ev):

   -36.1695 -12.5315 -11.9203 -11.6779  14.5410  17.0140  17.7924  20.7128
    21.7485  21.8411  32.0005

          k =-0.0833-0.3333 0.4167 (   516 PWs)   bands (ev):

   -36.1149 -12.8013 -12.0271 -11.6821  14.6508  16.6389  18.6238  21.1084
    21.9804  23.4220  30.7449

          k =-0.0833 0.5833-0.5000 (   518 PWs)   bands (ev):

   -36.0831 -12.9537 -12.0882 -11.6845  14.5225  16.4403  19.5626  21.2595
    22.2570  24.6240  29.9652

          k =-0.1667-0.1667 0.3333 (   518 PWs)   bands (ev):

   -36.1780 -12.4592 -11.8947 -11.7194  14.6578  17.1722  17.3791  20.4318
    21.7105  21.9287  32.7643

          k =-0.1667-0.2500 0.4167 (   515 PWs)   bands (ev):

   -36.1235 -12.6827 -12.0379 -11.7416  15.1677  16.7901  17.6087  20.6986
    22.0497  23.4970  31.3794

          k =-0.1667 0.6667-0.5000 (   516 PWs)   bands (ev):

   -36.0833 -12.8342 -12.1569 -11.7515  15.1120  16.6003  18.3398  21.0635
    22.2187  25.1427  30.0380

          k =-0.1667 0.5833-0.4167 (   519 PWs)   bands (ev):

   -36.0685 -12.8876 -12.2023 -11.7545  15.0278  16.5400  18.7323  21.1556
    22.4108  25.9397  29.2826

          k =-0.2500 0.7500-0.5000 (   521 PWs)   bands (ev):

   -36.0834 -12.7560 -12.2140 -11.7806  15.5903  16.6345  17.6845  20.9544
    22.1209  25.4153  30.1068

          k =-0.2500 0.6667-0.4167 (   517 PWs)   bands (ev):

   -36.0601 -12.7580 -12.3629 -11.7962  15.6351  16.7010  17.8193  21.2988
    22.1522  27.1193  28.8185

          k =-0.3333 0.6667-0.3333 (   523 PWs)   bands (ev):

   -36.0516 -12.5862 -12.5862 -11.8095  15.8484  17.1646  17.1646  21.7861
    21.7861  28.2227  29.1142

          k = 0.0000 0.0000 0.1667 (   527 PWs)   bands (ev):

   -36.2999 -11.7694 -11.6958 -11.6958  12.6724  18.3440  18.3440  18.6485
    20.4897  21.5951  32.9990

          k = 0.0000-0.0833 0.2500 (   522 PWs)   bands (ev):

   -36.2559 -12.0047 -11.7780 -11.7144  13.4137  18.0108  18.1977  19.3664
    19.9096  21.8234  33.4550

          k = 0.0000-0.1667 0.3333 (   519 PWs)   bands (ev):

   -36.1952 -12.3387 -11.8882 -11.7153  14.2922  17.5096  17.8474  19.9992
    20.6169  22.0143  32.7017

          k = 0.0000-0.2500 0.4167 (   521 PWs)   bands (ev):

   -36.1337 -12.6622 -11.9961 -11.7148  14.7075  17.0587  18.0258  20.5352
    22.1696  22.2298  31.3347

          k = 0.0000-0.3333 0.5000 (   523 PWs)   bands (ev):

   -36.0883 -12.8924 -12.0739 -11.7143  14.6154  16.7557  18.7492  20.8569
    22.7490  23.6694  30.4052

          k = 0.0000 0.5833-0.4167 (   520 PWs)   bands (ev):

   -36.0715 -12.9753 -12.1020 -11.7141  14.5259  16.6498  19.1769  20.7934
    23.2082  24.3695  29.9440

          k =-0.0833-0.0833 0.3333 (   520 PWs)   bands (ev):

   -36.2045 -12.2334 -11.8714 -11.7700  14.2295  17.7703  17.9377  19.5136
    20.2294  22.1386  33.5069

          k =-0.0833-0.1667 0.4167 (   522 PWs)   bands (ev):

   -36.1446 -12.5179 -11.9971 -11.7839  14.9564  17.2204  17.7616  19.8340
    21.5835  22.4414  32.0396

          k =-0.0833-0.2500 0.5000 (   520 PWs)   bands (ev):

   -36.0921 -12.7626 -12.1088 -11.7854  15.0818  17.0217  17.8791  20.3830
    22.4107  23.6213  30.9080

          k =-0.0833 0.6667-0.4167 (   521 PWs)   bands (ev):

   -36.0616 -12.9020 -12.1728 -11.7849  14.9288  16.9293  18.2493  20.4871
    23.1183  24.9821  29.8588

          k =-0.1667 0.1667 0.1667 (   516 PWs)   bands (ev):

   -36.2453 -12.1664 -11.7067 -11.7067  13.6280  17.5745  17.5745  20.3519
    21.0826  21.0826  33.3403

          k =-0.1667-0.1667 0.5000 (   517 PWs)   bands (ev):

   -36.0936 -12.6793 -12.1548 -11.8161  15.5270  16.6645  17.8646  20.0958
    22.0977  23.7742  31.1704

          k =-0.1667 0.7500-0.4167 (   516 PWs)   bands (ev):

   -36.0559 -12.7816 -12.2975 -11.8249  15.6144  16.6757  17.7126  20.5889
    22.3617  25.6858  29.9089

          k =-0.1667 0.6667-0.3333 (   519 PWs)   bands (ev):

   -36.0421 -12.8149 -12.3548 -11.8265  15.5251  16.9192  17.5095  20.7356
    22.6855  26.8519  28.9983

          k =-0.2500 0.2500 0.1667 (   524 PWs)   bands (ev):

   -36.1901 -12.4427 -11.8299 -11.7178  14.5506  17.0636  17.2577  21.0276
    21.4368  21.8177  33.0428

          k =-0.2500 0.7500-0.3333 (   513 PWs)   bands (ev):

   -36.0349 -12.7080 -12.5026 -11.8367  16.1614  16.5219  17.1481  21.3024
    22.1141  27.8680  28.7837

          k =-0.3333 0.3333 0.1667 (   515 PWs)   bands (ev):

   -36.1344 -12.6875 -11.9763 -11.7289  15.0373  16.6631  17.6617  21.2316
    21.7348  23.4824  31.7056

          k =-0.3333 0.2500 0.2500 (   519 PWs)   bands (ev):

   -36.1415 -12.6350 -11.9266 -11.7895  15.4168  16.7727  16.9161  21.2117
    21.7279  23.5609  32.3271

          k = 0.5833-0.5833 0.1667 (   518 PWs)   bands (ev):

   -36.0932 -12.8547 -12.0909 -11.7371  14.9437  16.4126  18.7755  21.4559
    21.9659  24.9749  30.2941

          k = 0.5833-0.6667 0.2500 (   515 PWs)   bands (ev):

   -36.0991 -12.7524 -12.0895 -11.8212  15.6283  16.5336  17.5515  21.4307
    21.9786  25.3158  30.5760

          k = 0.5000-0.5000 0.1667 (   516 PWs)   bands (ev):

   -36.0781 -12.9139 -12.1339 -11.7401  14.8547  16.3276  19.4007  21.5198
    22.0599  25.6275  29.4495

          k = 0.5000-0.5833 0.2500 (   513 PWs)   bands (ev):

   -36.0745 -12.7972 -12.2111 -11.8344  15.4907  16.4203  18.4159  21.6215
    22.0992  26.5858  29.0025

          k = 0.5000-0.6667 0.3333 (   515 PWs)   bands (ev):

   -36.0733 -12.7145 -12.2726 -11.8777  15.8612  16.7315  17.6177  21.6517
    22.0830  27.0612  28.9452

          k = 0.4167-0.5833 0.3333 (   514 PWs)   bands (ev):

   -36.0638 -12.6467 -12.3988 -11.8939  15.8631  16.8568  17.7358  21.8146
    22.0612  28.1314  28.1705

          k = 0.0000 0.0000 0.3333 (   518 PWs)   bands (ev):

   -36.2142 -12.0774 -11.8628 -11.8628  14.0962  18.4228  18.4228  18.7359
    19.3954  22.2558  34.5797

          k = 0.0000-0.0833 0.4167 (   525 PWs)   bands (ev):

   -36.1568 -12.3283 -11.9767 -11.9044  14.9092  17.6022  18.2258  19.0546
    20.4102  22.5172  32.7995

          k = 0.0000-0.1667 0.5000 (   522 PWs)   bands (ev):

   -36.0987 -12.6143 -12.0881 -11.9009  15.3224  17.1378  17.8605  19.7594
    21.9487  22.8824  31.7091

          k = 0.0000-0.2500 0.5833 (   518 PWs)   bands (ev):

   -36.0558 -12.8228 -12.1683 -11.8934  15.1636  17.3880  17.5952  19.9697
    23.4859  23.9311  30.6050

          k = 0.0000 0.6667-0.3333 (   526 PWs)   bands (ev):

   -36.0400 -12.8984 -12.1974 -11.8903  15.0381  17.5006  17.6081  19.8755
    24.2198  24.8105  29.6620

          k =-0.0833-0.0833 0.5000 (   521 PWs)   bands (ev):

   -36.1012 -12.5118 -12.1112 -11.9626  15.5332  16.8211  18.4135  19.3280
    21.3868  22.8915  32.1423

          k =-0.0833-0.1667 0.5833 (   519 PWs)   bands (ev):

   -36.0525 -12.6992 -12.2376 -11.9665  15.6708  16.5180  18.1529  19.9273
    22.3771  24.1284  31.2666

          k =-0.0833 0.7500-0.3333 (   516 PWs)   bands (ev):

   -36.0242 -12.8117 -12.3097 -11.9622  15.4166  16.8180  17.8032  20.0948
    23.3327  25.8428  29.6617

          k =-0.1667 0.8333-0.3333 (   518 PWs)   bands (ev):

   -36.0184 -12.7270 -12.4177 -11.9756  15.9780  16.1000  17.7819  20.7749
    22.4681  26.2313  29.9113

          k =-0.1667 0.7500-0.2500 (   513 PWs)   bands (ev):

   -36.0059 -12.7141 -12.5103 -11.9748  15.8313  16.3325  17.4380  21.2265
    22.6012  27.9711  28.7431

          k = 0.6667-0.6667 0.3333 (   510 PWs)   bands (ev):

   -36.1049 -12.7183 -11.9585 -11.9585  16.4266  16.5477  16.5477  21.7489
    21.7489  25.4428  31.3460

          k = 0.5833-0.5833 0.3333 (   519 PWs)   bands (ev):

   -36.0781 -12.7060 -12.1591 -11.9819  16.2454  16.4467  17.4945  21.8640
    22.0385  27.0480  29.1484

          k = 0.5000-0.5000 0.3333 (   516 PWs)   bands (ev):

   -36.0683 -12.6687 -12.2659 -11.9904  16.1461  16.4201  17.9778  21.9242
    22.1270  27.8405  28.1585

          k = 0.5000-0.5833 0.4167 (   519 PWs)   bands (ev):

   -36.0660 -12.5612 -12.3153 -12.0805  16.3549  16.8684  17.3936  22.0467
    22.1219  27.8350  28.7000

          k = 0.0000 0.0000 0.5000 (   522 PWs)   bands (ev):

   -36.1039 -12.3734 -12.0952 -12.0952  15.5344  16.9354  18.9907  18.9907
    20.5472  22.7862  32.6851

          k = 0.0000-0.0833 0.5833 (   518 PWs)   bands (ev):

   -36.0506 -12.5547 -12.2112 -12.1413  15.7882  16.2295  19.0671  19.5689
    21.7326  23.2872  32.5205

          k = 0.0000-0.1667 0.6667 (   510 PWs)   bands (ev):

   -36.0111 -12.7265 -12.2946 -12.1309  15.4441  16.1883  18.9165  19.7986
    23.2522  24.7193  30.7970

          k = 0.0000 0.7500-0.2500 (   518 PWs)   bands (ev):

   -35.9966 -12.7914 -12.3248 -12.1242  15.2635  16.2350  18.8496  19.7785
    24.0228  26.0737  29.1910

          k =-0.0833-0.0833 0.6667 (   518 PWs)   bands (ev):

   -36.0064 -12.6424 -12.3548 -12.1809  15.6227  15.7874  19.1455  20.3819
    22.4485  24.5098  31.5688

          k =-0.0833 0.8333-0.2500 (   514 PWs)   bands (ev):

   -35.9807 -12.7073 -12.4489 -12.1751  15.3113  15.7133  18.9545  20.9252
    23.2319  26.5231  29.4480

          k =-0.1667 0.8333-0.1667 (   505 PWs)   bands (ev):

   -35.9695 -12.6113 -12.6113 -12.1737  15.3972  15.3972  18.8235  22.3811
    22.3811  28.6872  28.7950

          k = 0.5000-0.5000 0.5000 (   532 PWs)   bands (ev):

   -36.0634 -12.3309 -12.3309 -12.3309  16.9324  16.9324  16.9324  22.1611
    22.1611  27.5174  29.9811

          k = 0.0000 0.0000 0.6667 (   514 PWs)   bands (ev):

   -36.0020 -12.5368 -12.3316 -12.3316  15.4999  15.6573  20.2381  20.2381
    21.9165  23.7947  32.9155

          k = 0.0000-0.0833 0.7500 (   509 PWs)   bands (ev):

   -35.9661 -12.6300 -12.4180 -12.3597  15.0498  15.3248  20.5754  20.8113
    23.0570  25.1644  30.5210

          k = 0.0000 0.8333-0.1667 (   504 PWs)   bands (ev):

   -35.9529 -12.6823 -12.4492 -12.3508  14.9004  15.1791  20.5864  20.9430
    23.8335  26.7938  28.5567

          k =-0.0833 0.9167-0.1667 (   507 PWs)   bands (ev):

   -35.9427 -12.6267 -12.5348 -12.3756  14.8000  14.9321  20.6814  22.1922
    23.2808  26.8364  28.9919

          k = 0.0000 0.0000 0.8333 (   502 PWs)   bands (ev):

   -35.9329 -12.5747 -12.5065 -12.5065  14.5949  14.7558  22.1203  22.1203
    23.1357  25.8401  29.2737

          k = 0.0000 0.9167-0.0833 (   490 PWs)   bands (ev):

   -35.9207 -12.6010 -12.5385 -12.5125  14.4607  14.5143  22.4852  22.6475
    23.6994  27.0662  27.7243

          k = 0.0000 0.0000-1.0000 (   490 PWs)   bands (ev):

   -35.9089 -12.5709 -12.5709 -12.5709  14.2872  14.2872  23.6513  23.6513
    23.6513  27.1225  27.1225

     the Fermi energy is    18.0011 ev

!    total energy              =    -117.93266437 Ry
     estimated scf accuracy    <          2.6E-13 Ry
     smearing contrib. (-TS)   =       0.00081722 Ry
     internal energy E=F+TS    =    -117.93348159 Ry

     The total energy is F=E-TS. E is the sum of the following terms:
     one-electron contribution =     -15.73376016 Ry
     hartree contribution      =      14.88974582 Ry
     xc contribution           =     -18.44785491 Ry
     ewald contribution        =     -98.64161234 Ry

     convergence has been achieved in  10 iterations

     Writing all to output data dir ./tmp/Nb_ecut40.save/
     ethr =  3.23E-12,  avg # of iterations =  2.0

     init_run     :      0.29s CPU      0.30s WALL (       1 calls)
     electrons    :      4.51s CPU      4.91s WALL (       1 calls)

     Called by init_run:
     wfcinit      :      0.15s CPU      0.16s WALL (       1 calls)
     potinit      :      0.01s CPU      0.01s WALL (       1 calls)
     hinit0       :      0.11s CPU      0.12s WALL (       1 calls)

     Called by electrons:
     c_bands      :      3.55s CPU      3.91s WALL (      11 calls)
     sum_band     :      0.79s CPU      0.83s WALL (      11 calls)
     v_of_rho     :      0.08s CPU      0.08s WALL (      11 calls)
     newd         :      0.09s CPU      0.09s WALL (      11 calls)
     mix_rho      :      0.01s CPU      0.01s WALL (      11 calls)

     Called by c_bands:
     init_us_2    :      0.09s CPU      0.10s WALL (    1656 calls)
     init_us_2:cp :      0.09s CPU      0.10s WALL (    1656 calls)
[...]
    24.0228  26.0737  29.1910

          k =-0.0833-0.0833 0.6667 (   518 PWs)   bands (ev):

   -36.0064 -12.6424 -12.3548 -12.1809  15.6227  15.7874  19.1455  20.3819
    22.4485  24.5098  31.5688

          k =-0.0833 0.8333-0.2500 (   514 PWs)   bands (ev):

   -35.9807 -12.7073 -12.4489 -12.1751  15.3113  15.7133  18.9545  20.9252
    23.2319  26.5231  29.4480

          k =-0.1667 0.8333-0.1667 (   505 PWs)   bands (ev):

   -35.9695 -12.6113 -12.6113 -12.1737  15.3972  15.3972  18.8235  22.3811
    22.3811  28.6872  28.7950

          k = 0.5000-0.5000 0.5000 (   532 PWs)   bands (ev):

   -36.0634 -12.3309 -12.3309 -12.3309  16.9324  16.9324  16.9324  22.1611
    22.1611  27.5174  29.9811

          k = 0.0000 0.0000 0.6667 (   514 PWs)   bands (ev):

   -36.0020 -12.5368 -12.3316 -12.3316  15.4999  15.6573  20.2381  20.2381
    21.9165  23.7947  32.9155

          k = 0.0000-0.0833 0.7500 (   509 PWs)   bands (ev):

   -35.9661 -12.6300 -12.4180 -12.3597  15.0498  15.3248  20.5754  20.8113
    23.0570  25.1644  30.5210

          k = 0.0000 0.8333-0.1667 (   504 PWs)   bands (ev):

   -35.9529 -12.6823 -12.4492 -12.3508  14.9004  15.1791  20.5864  20.9430
    23.8335  26.7938  28.5567

          k =-0.0833 0.9167-0.1667 (   507 PWs)   bands (ev):

   -35.9427 -12.6267 -12.5348 -12.3756  14.8000  14.9321  20.6814  22.1922
    23.2808  26.8364  28.9919

          k = 0.0000 0.0000 0.8333 (   502 PWs)   bands (ev):

   -35.9329 -12.5747 -12.5065 -12.5065  14.5949  14.7558  22.1203  22.1203
    23.1357  25.8401  29.2737

          k = 0.0000 0.9167-0.0833 (   490 PWs)   bands (ev):

   -35.9207 -12.6010 -12.5385 -12.5125  14.4607  14.5143  22.4852  22.6475
    23.6994  27.0662  27.7243

          k = 0.0000 0.0000-1.0000 (   490 PWs)   bands (ev):

   -35.9089 -12.5709 -12.5709 -12.5709  14.2872  14.2872  23.6513  23.6513
    23.6513  27.1225  27.1225

     the Fermi energy is    18.0011 ev

!    total energy              =    -117.93266437 Ry
     estimated scf accuracy    <          2.6E-13 Ry
     smearing contrib. (-TS)   =       0.00081722 Ry
     internal energy E=F+TS    =    -117.93348159 Ry

     The total energy is F=E-TS. E is the sum of the following terms:
     one-electron contribution =     -15.73376016 Ry
     hartree contribution      =      14.88974582 Ry
     xc contribution           =     -18.44785491 Ry
     ewald contribution        =     -98.64161234 Ry

     convergence has been achieved in  10 iterations

     Writing all to output data dir ./tmp/Nb_ecut40.save/

     init_run     :      0.31s CPU      0.32s WALL (       1 calls)
     electrons    :      4.58s CPU      5.00s WALL (       1 calls)

     Called by init_run:
     wfcinit      :      0.17s CPU      0.18s WALL (       1 calls)
     potinit      :      0.01s CPU      0.01s WALL (       1 calls)
     hinit0       :      0.11s CPU      0.12s WALL (       1 calls)

     Called by electrons:
     c_bands      :      3.62s CPU      3.96s WALL (      11 calls)
     sum_band     :      0.80s CPU      0.85s WALL (      11 calls)
     v_of_rho     :      0.08s CPU      0.08s WALL (      11 calls)
     newd         :      0.09s CPU      0.11s WALL (      11 calls)
     mix_rho      :      0.01s CPU      0.01s WALL (      11 calls)

     Called by c_bands:
     init_us_2    :      0.09s CPU      0.10s WALL (    1656 calls)
     init_us_2:cp :      0.09s CPU      0.10s WALL (    1656 calls)
     cegterg      :      3.48s CPU      3.80s WALL (     792 calls)

     Called by *egterg:
     cdiaghg      :      0.16s CPU      0.18s WALL (    2637 calls)
     h_psi        :      3.06s CPU      3.33s WALL (    2781 calls)
     s_psi        :      0.06s CPU      0.07s WALL (    2781 calls)
     g_psi        :      0.01s CPU      0.01s WALL (    1917 calls)

     Called by h_psi:
     h_psi:calbec :      0.07s CPU      0.08s WALL (    2781 calls)
     vloc_psi     :      2.92s CPU      3.17s WALL (    2781 calls)
     add_vuspsi   :      0.06s CPU      0.07s WALL (    2781 calls)

     General routines
     calbec       :      0.10s CPU      0.10s WALL (    3573 calls)
     fft          :      0.05s CPU      0.05s WALL (     142 calls)
     ffts         :      0.00s CPU      0.00s WALL (      22 calls)
     fftw         :      2.93s CPU      3.15s WALL (   53052 calls)
     interpolate  :      0.01s CPU      0.01s WALL (      11 calls)


     PWSCF        :      4.95s CPU      5.40s WALL


   This run was terminated on:  21: 6:56   6Mar2026            

=------------------------------------------------------------------------------=
   JOB DONE.
=------------------------------------------------------------------------------=
Note: The following floating-point exceptions are signalling: IEEE_INVALID_FLAG IEEE_DIVIDE_BY_ZERO IEEE_UNDERFLOW_FLAG

     total cpu time spent up to now is        5.4 secs

     End of self-consistent calculation

          k = 0.0000 0.0000 0.0000 (   531 PWs)   bands (ev):

   -36.3323 -11.6355 -11.6355 -11.6355  12.1110  18.3914  18.3914  18.3914
    21.3086  21.3086  32.2215

          k = 0.0000-0.0833 0.0833 (   539 PWs)   bands (ev):

   -36.3160 -11.7342 -11.6655 -11.6363  12.3954  18.2168  18.3447  18.6661
    21.0543  21.3101  32.4489

          k = 0.0000-0.1667 0.1667 (   523 PWs)   bands (ev):

   -36.2711 -11.9979 -11.7465 -11.6386  13.1560  17.7779  18.1284  19.4667
    20.7224  21.3435  32.8114

          k = 0.0000-0.2500 0.2500 (   525 PWs)   bands (ev):

   -36.2092 -12.3455 -11.8554 -11.6417  14.0466  17.2491  17.9251  20.7171
    20.7920  21.4613  32.3781

          k = 0.0000-0.3333 0.3333 (   519 PWs)   bands (ev):

   -36.1465 -12.6801 -11.9621 -11.6450  14.4564  16.7811  18.4502  21.1193
    21.6767  22.2584  31.1502

          k = 0.0000-0.4167 0.4167 (   523 PWs)   bands (ev):

   -36.1001 -12.9177 -12.0389 -11.6475  14.3796  16.4684  19.6147  21.3637
    21.9160  23.7389  30.8470

          k = 0.0000 0.5000-0.5000 (   512 PWs)   bands (ev):

   -36.0830 -13.0032 -12.0667 -11.6484  14.2992  16.3593  20.3278  21.3443
    22.0269  24.4255  30.1566

          k =-0.0833-0.0833 0.1667 (   523 PWs)   bands (ev):

   -36.2853 -11.9153 -11.6988 -11.6601  12.9241  17.9888  18.0902  19.2533
    20.6964  21.3966  32.8622

          k =-0.0833-0.1667 0.2500 (   523 PWs)   bands (ev):

   -36.2319 -12.2087 -11.7968 -11.6721  13.8032  17.5142  17.7692  20.3291
    20.5177  21.5697  33.0837

          k =-0.0833-0.2500 0.3333 (   521 PWs)   bands (ev):

   -36.1695 -12.5315 -11.9203 -11.6779  14.5410  17.0140  17.7924  20.7128
    21.7485  21.8411  32.0005

          k =-0.0833-0.3333 0.4167 (   516 PWs)   bands (ev):

   -36.1149 -12.8013 -12.0271 -11.6821  14.6508  16.6389  18.6238  21.1084
    21.9804  23.4220  30.7449

          k =-0.0833 0.5833-0.5000 (   518 PWs)   bands (ev):

   -36.0831 -12.9537 -12.0882 -11.6845  14.5225  16.4403  19.5626  21.2595
    22.2570  24.6240  29.9652

          k =-0.1667-0.1667 0.3333 (   518 PWs)   bands (ev):

   -36.1780 -12.4592 -11.8947 -11.7194  14.6578  17.1722  17.3791  20.4318
    21.7105  21.9287  32.7643

          k =-0.1667-0.2500 0.4167 (   515 PWs)   bands (ev):

   -36.1235 -12.6827 -12.0379 -11.7416  15.1677  16.7901  17.6087  20.6986
    22.0497  23.4970  31.3794

          k =-0.1667 0.6667-0.5000 (   516 PWs)   bands (ev):

   -36.0833 -12.8342 -12.1569 -11.7515  15.1120  16.6003  18.3398  21.0635
    22.2187  25.1427  30.0380

          k =-0.1667 0.5833-0.4167 (   519 PWs)   bands (ev):

   -36.0685 -12.8876 -12.2023 -11.7545  15.0278  16.5400  18.7323  21.1556
    22.4108  25.9397  29.2826

          k =-0.2500 0.7500-0.5000 (   521 PWs)   bands (ev):

   -36.0834 -12.7560 -12.2140 -11.7806  15.5903  16.6345  17.6845  20.9544
    22.1209  25.4153  30.1068

          k =-0.2500 0.6667-0.4167 (   517 PWs)   bands (ev):

   -36.0601 -12.7580 -12.3629 -11.7962  15.6351  16.7010  17.8193  21.2988
    22.1522  27.1193  28.8185

          k =-0.3333 0.6667-0.3333 (   523 PWs)   bands (ev):

   -36.0516 -12.5862 -12.5862 -11.8095  15.8484  17.1646  17.1646  21.7861
    21.7861  28.2227  29.1142

          k = 0.0000 0.0000 0.1667 (   527 PWs)   bands (ev):

   -36.2999 -11.7694 -11.6958 -11.6958  12.6724  18.3440  18.3440  18.6485
    20.4897  21.5951  32.9990

          k = 0.0000-0.0833 0.2500 (   522 PWs)   bands (ev):

   -36.2559 -12.0047 -11.7780 -11.7144  13.4137  18.0108  18.1977  19.3664
    19.9096  21.8234  33.4550

          k = 0.0000-0.1667 0.3333 (   519 PWs)   bands (ev):

   -36.1952 -12.3387 -11.8882 -11.7153  14.2922  17.5096  17.8474  19.9992
    20.6169  22.0143  32.7017

          k = 0.0000-0.2500 0.4167 (   521 PWs)   bands (ev):

   -36.1337 -12.6622 -11.9961 -11.7148  14.7075  17.0587  18.0258  20.5352
    22.1696  22.2298  31.3347

          k = 0.0000-0.3333 0.5000 (   523 PWs)   bands (ev):

   -36.0883 -12.8924 -12.0739 -11.7143  14.6154  16.7557  18.7492  20.8569
    22.7490  23.6694  30.4052

          k = 0.0000 0.5833-0.4167 (   520 PWs)   bands (ev):

   -36.0715 -12.9753 -12.1020 -11.7141  14.5259  16.6498  19.1769  20.7934
    23.2082  24.3695  29.9440

          k =-0.0833-0.0833 0.3333 (   520 PWs)   bands (ev):

   -36.2045 -12.2334 -11.8714 -11.7700  14.2295  17.7703  17.9377  19.5136
    20.2294  22.1386  33.5069

          k =-0.0833-0.1667 0.4167 (   522 PWs)   bands (ev):

   -36.1446 -12.5179 -11.9971 -11.7839  14.9564  17.2204  17.7616  19.8340
    21.5835  22.4414  32.0396

          k =-0.0833-0.2500 0.5000 (   520 PWs)   bands (ev):

   -36.0921 -12.7626 -12.1088 -11.7854  15.0818  17.0217  17.8791  20.3830
    22.4107  23.6213  30.9080

          k =-0.0833 0.6667-0.4167 (   521 PWs)   bands (ev):

   -36.0616 -12.9020 -12.1728 -11.7849  14.9288  16.9293  18.2493  20.4871
    23.1183  24.9821  29.8588

          k =-0.1667 0.1667 0.1667 (   516 PWs)   bands (ev):

   -36.2453 -12.1664 -11.7067 -11.7067  13.6280  17.5745  17.5745  20.3519
    21.0826  21.0826  33.3403

          k =-0.1667-0.1667 0.5000 (   517 PWs)   bands (ev):

   -36.0936 -12.6793 -12.1548 -11.8161  15.5270  16.6645  17.8646  20.0958
    22.0977  23.7742  31.1704

          k =-0.1667 0.7500-0.4167 (   516 PWs)   bands (ev):

   -36.0559 -12.7816 -12.2975 -11.8249  15.6144  16.6757  17.7126  20.5889
    22.3617  25.6858  29.9089

          k =-0.1667 0.6667-0.3333 (   519 PWs)   bands (ev):

   -36.0421 -12.8149 -12.3548 -11.8265  15.5251  16.9192  17.5095  20.7356
    22.6855  26.8519  28.9983

          k =-0.2500 0.2500 0.1667 (   524 PWs)   bands (ev):

   -36.1901 -12.4427 -11.8299 -11.7178  14.5506  17.0636  17.2577  21.0276
    21.4368  21.8177  33.0428

          k =-0.2500 0.7500-0.3333 (   513 PWs)   bands (ev):

   -36.0349 -12.7080 -12.5026 -11.8367  16.1614  16.5219  17.1481  21.3024
    22.1141  27.8680  28.7837

          k =-0.3333 0.3333 0.1667 (   515 PWs)   bands (ev):

   -36.1344 -12.6875 -11.9763 -11.7289  15.0373  16.6631  17.6617  21.2316
    21.7348  23.4824  31.7056

          k =-0.3333 0.2500 0.2500 (   519 PWs)   bands (ev):

   -36.1415 -12.6350 -11.9266 -11.7895  15.4168  16.7727  16.9161  21.2117
    21.7279  23.5609  32.3271

          k = 0.5833-0.5833 0.1667 (   518 PWs)   bands (ev):

   -36.0932 -12.8547 -12.0909 -11.7371  14.9437  16.4126  18.7755  21.4559
    21.9659  24.9749  30.2941

          k = 0.5833-0.6667 0.2500 (   515 PWs)   bands (ev):

   -36.0991 -12.7524 -12.0895 -11.8212  15.6283  16.5336  17.5515  21.4307
    21.9786  25.3158  30.5760

          k = 0.5000-0.5000 0.1667 (   516 PWs)   bands (ev):

   -36.0781 -12.9139 -12.1339 -11.7401  14.8547  16.3276  19.4007  21.5198
    22.0599  25.6275  29.4495

          k = 0.5000-0.5833 0.2500 (   513 PWs)   bands (ev):

   -36.0745 -12.7972 -12.2111 -11.8344  15.4907  16.4203  18.4159  21.6215
    22.0992  26.5858  29.0025

          k = 0.5000-0.6667 0.3333 (   515 PWs)   bands (ev):

   -36.0733 -12.7145 -12.2726 -11.8777  15.8612  16.7315  17.6177  21.6517
    22.0830  27.0612  28.9452

          k = 0.4167-0.5833 0.3333 (   514 PWs)   bands (ev):

   -36.0638 -12.6467 -12.3988 -11.8939  15.8631  16.8568  17.7358  21.8146
    22.0612  28.1314  28.1705

          k = 0.0000 0.0000 0.3333 (   518 PWs)   bands (ev):

   -36.2142 -12.0774 -11.8628 -11.8628  14.0962  18.4228  18.4228  18.7359
    19.3954  22.2558  34.5797

          k = 0.0000-0.0833 0.4167 (   525 PWs)   bands (ev):

   -36.1568 -12.3283 -11.9767 -11.9044  14.9092  17.6022  18.2258  19.0546
    20.4102  22.5172  32.7995

          k = 0.0000-0.1667 0.5000 (   522 PWs)   bands (ev):

   -36.0987 -12.6143 -12.0881 -11.9009  15.3224  17.1378  17.8605  19.7594
    21.9487  22.8824  31.7091

          k = 0.0000-0.2500 0.5833 (   518 PWs)   bands (ev):

   -36.0558 -12.8228 -12.1683 -11.8934  15.1636  17.3880  17.5952  19.9697
    23.4859  23.9311  30.6050

          k = 0.0000 0.6667-0.3333 (   526 PWs)   bands (ev):

   -36.0400 -12.8984 -12.1974 -11.8903  15.0381  17.5006  17.6081  19.8755
    24.2198  24.8105  29.6620

          k =-0.0833-0.0833 0.5000 (   521 PWs)   bands (ev):

   -36.1012 -12.5118 -12.1112 -11.9626  15.5332  16.8211  18.4135  19.3280
    21.3868  22.8915  32.1423

          k =-0.0833-0.1667 0.5833 (   519 PWs)   bands (ev):

   -36.0525 -12.6992 -12.2376 -11.9665  15.6708  16.5180  18.1529  19.9273
    22.3771  24.1284  31.2666

          k =-0.0833 0.7500-0.3333 (   516 PWs)   bands (ev):

   -36.0242 -12.8117 -12.3097 -11.9622  15.4166  16.8180  17.8032  20.0948
    23.3327  25.8428  29.6617

          k =-0.1667 0.8333-0.3333 (   518 PWs)   bands (ev):

   -36.0184 -12.7270 -12.4177 -11.9756  15.9780  16.1000  17.7819  20.7749
    22.4681  26.2313  29.9113

          k =-0.1667 0.7500-0.2500 (   513 PWs)   bands (ev):

   -36.0059 -12.7141 -12.5103 -11.9748  15.8313  16.3325  17.4380  21.2265
    22.6012  27.9711  28.7431

          k = 0.6667-0.6667 0.3333 (   510 PWs)   bands (ev):

   -36.1049 -12.7183 -11.9585 -11.9585  16.4266  16.5477  16.5477  21.7489
    21.7489  25.4428  31.3460

          k = 0.5833-0.5833 0.3333 (   519 PWs)   bands (ev):

   -36.0781 -12.7060 -12.1591 -11.9819  16.2454  16.4467  17.4945  21.8640
    22.0385  27.0480  29.1484

          k = 0.5000-0.5000 0.3333 (   516 PWs)   bands (ev):

   -36.0683 -12.6687 -12.2659 -11.9904  16.1461  16.4201  17.9778  21.9242
    22.1270  27.8405  28.1585

          k = 0.5000-0.5833 0.4167 (   519 PWs)   bands (ev):

   -36.0660 -12.5612 -12.3153 -12.0805  16.3549  16.8684  17.3936  22.0467
    22.1219  27.8350  28.7000

          k = 0.0000 0.0000 0.5000 (   522 PWs)   bands (ev):

   -36.1039 -12.3734 -12.0952 -12.0952  15.5344  16.9354  18.9907  18.9907
    20.5472  22.7862  32.6851

          k = 0.0000-0.0833 0.5833 (   518 PWs)   bands (ev):

   -36.0506 -12.5547 -12.2112 -12.1413  15.7882  16.2295  19.0671  19.5689
    21.7326  23.2872  32.5205

          k = 0.0000-0.1667 0.6667 (   510 PWs)   bands (ev):

   -36.0111 -12.7265 -12.2946 -12.1309  15.4441  16.1883  18.9165  19.7986
    23.2522  24.7193  30.7970

          k = 0.0000 0.7500-0.2500 (   518 PWs)   bands (ev):

   -35.9966 -12.7914 -12.3248 -12.1242  15.2635  16.2350  18.8496  19.7785
    24.0228  26.0737  29.1910

          k =-0.0833-0.0833 0.6667 (   518 PWs)   bands (ev):

   -36.0064 -12.6424 -12.3548 -12.1809  15.6227  15.7874  19.1455  20.3819
    22.4485  24.5098  31.5688

          k =-0.0833 0.8333-0.2500 (   514 PWs)   bands (ev):

   -35.9807 -12.7073 -12.4489 -12.1751  15.3113  15.7133  18.9545  20.9252
    23.2319  26.5231  29.4480

          k =-0.1667 0.8333-0.1667 (   505 PWs)   bands (ev):

   -35.9695 -12.6113 -12.6113 -12.1737  15.3972  15.3972  18.8235  22.3811
    22.3811  28.6872  28.7950

          k = 0.5000-0.5000 0.5000 (   532 PWs)   bands (ev):

   -36.0634 -12.3309 -12.3309 -12.3309  16.9324  16.9324  16.9324  22.1611
    22.1611  27.5174  29.9811

          k = 0.0000 0.0000 0.6667 (   514 PWs)   bands (ev):

   -36.0020 -12.5368 -12.3316 -12.3316  15.4999  15.6573  20.2381  20.2381
    21.9165  23.7947  32.9155

          k = 0.0000-0.0833 0.7500 (   509 PWs)   bands (ev):

   -35.9661 -12.6300 -12.4180 -12.3597  15.0498  15.3248  20.5754  20.8113
    23.0570  25.1644  30.5210

          k = 0.0000 0.8333-0.1667 (   504 PWs)   bands (ev):

   -35.9529 -12.6823 -12.4492 -12.3508  14.9004  15.1791  20.5864  20.9430
    23.8335  26.7938  28.5567

          k =-0.0833 0.9167-0.1667 (   507 PWs)   bands (ev):

   -35.9427 -12.6267 -12.5348 -12.3756  14.8000  14.9321  20.6814  22.1922
    23.2808  26.8364  28.9919

          k = 0.0000 0.0000 0.8333 (   502 PWs)   bands (ev):

   -35.9329 -12.5747 -12.5065 -12.5065  14.5949  14.7558  22.1203  22.1203
    23.1357  25.8401  29.2737

          k = 0.0000 0.9167-0.0833 (   490 PWs)   bands (ev):

   -35.9207 -12.6010 -12.5385 -12.5125  14.4607  14.5143  22.4852  22.6475
    23.6994  27.0662  27.7243

          k = 0.0000 0.0000-1.0000 (   490 PWs)   bands (ev):

   -35.9089 -12.5709 -12.5709 -12.5709  14.2872  14.2872  23.6513  23.6513
    23.6513  27.1225  27.1225

     the Fermi energy is    18.0011 ev

!    total energy              =    -117.93266437 Ry
     estimated scf accuracy    <          2.6E-13 Ry
     smearing contrib. (-TS)   =       0.00081722 Ry
     internal energy E=F+TS    =    -117.93348159 Ry

     The total energy is F=E-TS. E is the sum of the following terms:
     one-electron contribution =     -15.73376016 Ry
     hartree contribution      =      14.88974582 Ry
     xc contribution           =     -18.44785491 Ry
     ewald contribution        =     -98.64161234 Ry

     convergence has been achieved in  10 iterations

     Writing all to output data dir ./tmp/Nb_ecut40.save/

     init_run     :      0.30s CPU      0.32s WALL (       1 calls)
     electrons    :      4.56s CPU      5.03s WALL (       1 calls)

     Called by init_run:
     wfcinit      :      0.16s CPU      0.17s WALL (       1 calls)
     potinit      :      0.01s CPU      0.01s WALL (       1 calls)
     hinit0       :      0.11s CPU      0.12s WALL (       1 calls)

     Called by electrons:
     c_bands      :      3.60s CPU      4.00s WALL (      11 calls)
     sum_band     :      0.79s CPU      0.84s WALL (      11 calls)
     v_of_rho     :      0.08s CPU      0.09s WALL (      11 calls)
     newd         :      0.09s CPU      0.10s WALL (      11 calls)
     mix_rho      :      0.01s CPU      0.01s WALL (      11 calls)

     Called by c_bands:
     init_us_2    :      0.09s CPU      0.10s WALL (    1656 calls)
     init_us_2:cp :      0.09s CPU      0.10s WALL (    1656 calls)
     cegterg      :      3.46s CPU      3.84s WALL (     792 calls)

     Called by *egterg:
     cdiaghg      :      0.17s CPU      0.18s WALL (    2637 calls)
     h_psi        :      3.04s CPU      3.37s WALL (    2781 calls)
     s_psi        :      0.06s CPU      0.07s WALL (    2781 calls)
     g_psi        :      0.01s CPU      0.01s WALL (    1917 calls)

     Called by h_psi:
     h_psi:calbec :      0.07s CPU      0.08s WALL (    2781 calls)
     vloc_psi     :      2.90s CPU      3.21s WALL (    2781 calls)
     add_vuspsi   :      0.06s CPU      0.07s WALL (    2781 calls)

     General routines
     calbec       :      0.10s CPU      0.10s WALL (    3573 calls)
     fft          :      0.05s CPU      0.05s WALL (     142 calls)
     ffts         :      0.00s CPU      0.00s WALL (      22 calls)
     fftw         :      2.89s CPU      3.17s WALL (   53052 calls)
     interpolate  :      0.01s CPU      0.01s WALL (      11 calls)


     PWSCF        :      4.92s CPU      5.42s WALL


   This run was terminated on:  21: 6:56   6Mar2026            

=------------------------------------------------------------------------------=
   JOB DONE.
=------------------------------------------------------------------------------=
Note: The following floating-point exceptions are signalling: IEEE_INVALID_FLAG IEEE_DIVIDE_BY_ZERO IEEE_UNDERFLOW_FLAG
