
     Program PHONON v.7.2 starts on  8Mar2026 at 17:26:28 

     This program is part of the open-source Quantum ESPRESSO suite
     for quantum simulation of materials; please cite
         "P. Giannozzi et al., J. Phys.:Condens. Matter 21 395502 (2009);
         "P. Giannozzi et al., J. Phys.:Condens. Matter 29 465901 (2017);
         "P. Giannozzi et al., J. Chem. Phys. 152 154105 (2020);
          URL http://www.quantum-espresso.org", 
     in publications or presentations arising from this work. More details at
     http://www.quantum-espresso.org/quote

     Serial multi-threaded version, running on    6 processor cores
     0 MiB available memory on the printing compute node when the environment starts

     Reading input from results_4x4x4/phonon/Nb_ph.in

     Reading xml data from directory:

     ./tmp/Nb.save/


     IMPORTANT: XC functional enforced from input :
     Exchange-correlation= PBE
                           (   1   4   3   4   0   0   0)
     Any further DFT definition will be discarded
     Please, verify this is what you really want


     G-vector sticks info
     --------------------
     sticks:   dense  smooth     PW     G-vecs:    dense   smooth      PW
     Sum        1243     619    197                27475     9693    1721

     Using Slab Decomposition

     Reading collected, re-writing distributed wavefunctions in ./tmp/


     Dynamical matrices for ( 4, 4, 4)  uniform grid of q-points
     (   8 q-points):
       N         xq(1)         xq(2)         xq(3) 
       1   0.000000000   0.000000000   0.000000000
       2   0.000000000  -0.250000000   0.250000000
       3   0.000000000   0.500000000  -0.500000000
       4  -0.250000000   0.750000000  -0.500000000
       5   0.000000000   0.000000000   0.500000000
       6   0.000000000   0.750000000  -0.250000000
       7   0.500000000  -0.500000000   0.500000000
       8   0.000000000   0.000000000  -1.000000000

     Calculation of q =    0.0000000   0.0000000   0.0000000

     Phonon dispersion for Nb BCC - Publication 4x4x4                           

     bravais-lattice index     =            3
     lattice parameter (alat)  =       6.2521  a.u.
     unit-cell volume          =     122.1934 (a.u.)^3
     number of atoms/cell      =            1
     number of atomic types    =            1
     kinetic-energy cut-off    =      70.0000  Ry
     charge density cut-off    =     560.0000  Ry
     convergence threshold     =      1.0E-14
     beta                      =       0.3000
     number of iterations used =            4
     Exchange-correlation= PBE
                           (   1   4   3   4   0   0   0)


     celldm(1)=    6.25210  celldm(2)=    0.00000  celldm(3)=    0.00000
     celldm(4)=    0.00000  celldm(5)=    0.00000  celldm(6)=    0.00000

     crystal axes: (cart. coord. in units of alat)
               a(1) = (  0.5000  0.5000  0.5000 )  
               a(2) = ( -0.5000  0.5000  0.5000 )  
               a(3) = ( -0.5000 -0.5000  0.5000 )  

     reciprocal axes: (cart. coord. in units 2 pi/alat)
               b(1) = (  1.0000  0.0000  1.0000 )  
               b(2) = ( -1.0000  1.0000  0.0000 )  
               b(3) = (  0.0000 -1.0000  1.0000 )  


     Atoms inside the unit cell: 

     Cartesian axes

     site n.  atom      mass           positions (alat units)
        1     Nb  92.9060   tau(    1) = (    0.00000    0.00000    0.00000  )

     Computing dynamical matrix for 
                    q = (   0.0000000   0.0000000   0.0000000 )

     49 Sym.Ops. (with q -> -q+G )


     G cutoff =  554.4726  (  27475 G-vectors)     FFT grid: ( 45, 45, 45)
     G cutoff =  277.2363  (   9693 G-vectors)  smooth grid: ( 30, 30, 30)

     number of k points=    72  Marzari-Vanderbilt smearing, width (Ry)=  0.0300

     PseudoPot. # 1 for Nb read from file:
     ./pseudo/nb_pbe_v1.uspp.F.UPF
     MD5 check sum: 573aab8a2fa660278ed4a62cd769473f
     Pseudo is Ultrasoft + core correction, Zval = 13.0
     Generated by new atomic code, or converted to UPF format
     Using radial grid of  887 points,  6 beta functions with: 
                l(1) =   0
                l(2) =   0
                l(3) =   1
                l(4) =   1
                l(5) =   2
                l(6) =   2
     Q(r) pseudized with  6 coefficients,  rinner =    1.000   1.000   1.000
                                                       1.000   1.000

     Mode symmetry, O_h (m-3m)  point group:


     Atomic displacements:
     There are    1 irreducible representations

     Representation     1      3 modes -  To be done



     Alpha used in Ewald sum =   2.8000
     PHONON       :   1m49.46s CPU     28.05s WALL



     Representation #   1 modes #   1   2   3

     Self-consistent Calculation

     Pert. #  1: Fermi energy shift (Ry) =    -6.2469E-26    -3.1347E-38
     Pert. #  2: Fermi energy shift (Ry) =     1.5079E-26    -3.1347E-38
     Pert. #  3: Fermi energy shift (Ry) =     2.9081E-26    -9.4040E-38

      iter #   1 total cpu time :   386.8 secs   av.it.:   7.1
      thresh= 1.000E-02 alpha_mix =  0.300 |ddv_scf|^2 =  1.003E-06

     Pert. #  1: Fermi energy shift (Ry) =     1.0663E-25    -5.2040E-40
     Pert. #  2: Fermi energy shift (Ry) =    -1.1848E-25     4.2857E-40
     Pert. #  3: Fermi energy shift (Ry) =    -7.4048E-26    -2.7551E-40

      iter #   2 total cpu time :   858.6 secs   av.it.:  11.0
      thresh= 1.002E-04 alpha_mix =  0.300 |ddv_scf|^2 =  2.569E-07

     Pert. #  1: Fermi energy shift (Ry) =     5.1699E-26     3.8265E-42
     Pert. #  2: Fermi energy shift (Ry) =     1.7233E-26     0.0000E+00
     Pert. #  3: Fermi energy shift (Ry) =    -8.8319E-26     7.6530E-42

      iter #   3 total cpu time :  1346.8 secs   av.it.:  11.8
      thresh= 5.069E-05 alpha_mix =  0.300 |ddv_scf|^2 =  1.721E-09

     Pert. #  1: Fermi energy shift (Ry) =     4.5236E-26     0.0000E+00
     Pert. #  2: Fermi energy shift (Ry) =    -5.1699E-26     7.6530E-42
     Pert. #  3: Fermi energy shift (Ry) =    -9.4243E-27    -2.6785E-41

      iter #   4 total cpu time :  1882.4 secs   av.it.:  12.4
      thresh= 4.149E-06 alpha_mix =  0.300 |ddv_scf|^2 =  1.401E-11

     Pert. #  1: Fermi energy shift (Ry) =     4.5236E-26     2.3915E-43
     Pert. #  2: Fermi energy shift (Ry) =     1.0771E-27    -4.7831E-43
     Pert. #  3: Fermi energy shift (Ry) =     2.5042E-26     1.6741E-42

      iter #   5 total cpu time :  2423.3 secs   av.it.:  12.2
      thresh= 3.743E-07 alpha_mix =  0.300 |ddv_scf|^2 =  2.299E-12

     Pert. #  1: Fermi energy shift (Ry) =    -4.4159E-26     2.6307E-42
     Pert. #  2: Fermi energy shift (Ry) =     8.6165E-27    -4.7831E-43
     Pert. #  3: Fermi energy shift (Ry) =    -3.6351E-26     4.7831E-42

      iter #   6 total cpu time :  2944.2 secs   av.it.:  12.1
      thresh= 1.516E-07 alpha_mix =  0.300 |ddv_scf|^2 =  4.045E-15

     End of self-consistent calculation

     Convergence has been achieved 

     Number of q in the star =    1
     List of q in the star:
          1   0.000000000   0.000000000   0.000000000

     Diagonalizing the dynamical matrix

     q = (    0.000000000   0.000000000   0.000000000 ) 

 **************************************************************************
     freq (    1) =       0.271342 [THz] =       9.051007 [cm-1]
     freq (    2) =       0.271342 [THz] =       9.051007 [cm-1]
     freq (    3) =       0.271342 [THz] =       9.051007 [cm-1]
 **************************************************************************

     Mode symmetry, O_h (m-3m)  point group:

     freq (   1-   3) =          9.1  [cm-1]   --> T_1u G_15  G_4- I  

     Calculation of q =    0.0000000  -0.2500000   0.2500000

     G-vector sticks info
     --------------------
     sticks:   dense  smooth     PW     G-vecs:    dense   smooth      PW
     Sum        1243     619    205                27475     9693    1865

     Using Slab Decomposition


     Title: 
     Phonon dispersion for Nb BCC - Publication 4x4x4                           


     bravais-lattice index     =            3
     lattice parameter (alat)  =       6.2521  a.u.
     unit-cell volume          =     122.1934 (a.u.)^3
     number of atoms/cell      =            1
     number of atomic types    =            1
     number of electrons       =        13.00
     number of Kohn-Sham states=           11
     kinetic-energy cutoff     =      70.0000  Ry
     charge density cutoff     =     560.0000  Ry
     Exchange-correlation= PBE
                           (   1   4   3   4   0   0   0)

     celldm(1)=   6.252100  celldm(2)=   0.000000  celldm(3)=   0.000000
     celldm(4)=   0.000000  celldm(5)=   0.000000  celldm(6)=   0.000000

     crystal axes: (cart. coord. in units of alat)
               a(1) = (   0.500000   0.500000   0.500000 )  
               a(2) = (  -0.500000   0.500000   0.500000 )  
               a(3) = (  -0.500000  -0.500000   0.500000 )  

     reciprocal axes: (cart. coord. in units 2 pi/alat)
               b(1) = (  1.000000  0.000000  1.000000 )  
               b(2) = ( -1.000000  1.000000  0.000000 )  
               b(3) = (  0.000000 -1.000000  1.000000 )  


     PseudoPot. # 1 for Nb read from file:
     ./pseudo/nb_pbe_v1.uspp.F.UPF
     MD5 check sum: 573aab8a2fa660278ed4a62cd769473f
     Pseudo is Ultrasoft + core correction, Zval = 13.0
     Generated by new atomic code, or converted to UPF format
     Using radial grid of  887 points,  6 beta functions with: 
                l(1) =   0
                l(2) =   0
                l(3) =   1
                l(4) =   1
                l(5) =   2
                l(6) =   2
     Q(r) pseudized with  6 coefficients,  rinner =    1.000   1.000   1.000
                                                       1.000   1.000

     atomic species   valence    mass     pseudopotential
        Nb            13.00    92.90600     Nb( 1.00)

     48 Sym. Ops., with inversion, found



   Cartesian axes

     site n.     atom                  positions (alat units)
         1           Nb  tau(   1) = (   0.0000000   0.0000000   0.0000000  )

     number of k points=  1020  Marzari-Vanderbilt smearing, width (Ry)=  0.0300

     Number of k-points >= 100: set verbosity='high' to print them.

     Dense  grid:    27475 G-vectors     FFT dimensions: (  45,  45,  45)

     Smooth grid:     9693 G-vectors     FFT dimensions: (  30,  30,  30)

     Estimated max dynamical RAM per process >      90.58 MB

     The potential is recalculated from file :
     ./tmp/_ph0/Nb.save/charge-density

     Starting wfcs are   13 atomic wfcs

     Band Structure Calculation
     Davidson diagonalization with overlap

     ethr =  7.69E-11,  avg # of iterations = 13.8

     total cpu time spent up to now is     2884.6 secs

     End of band structure calculation

     Number of k-points >= 100: set verbosity='high' to print the bands.

     the Fermi energy is    17.8709 ev

     Writing config to output data dir ./tmp/_ph0/Nb.save/

     Phonon dispersion for Nb BCC - Publication 4x4x4                           

     bravais-lattice index     =            3
     lattice parameter (alat)  =       6.2521  a.u.
     unit-cell volume          =     122.1934 (a.u.)^3
     number of atoms/cell      =            1
     number of atomic types    =            1
     kinetic-energy cut-off    =      70.0000  Ry
     charge density cut-off    =     560.0000  Ry
     convergence threshold     =      1.0E-14
     beta                      =       0.3000
     number of iterations used =            4
     Exchange-correlation= PBE
                           (   1   4   3   4   0   0   0)


     celldm(1)=    6.25210  celldm(2)=    0.00000  celldm(3)=    0.00000
     celldm(4)=    0.00000  celldm(5)=    0.00000  celldm(6)=    0.00000

     crystal axes: (cart. coord. in units of alat)
               a(1) = (  0.5000  0.5000  0.5000 )  
               a(2) = ( -0.5000  0.5000  0.5000 )  
               a(3) = ( -0.5000 -0.5000  0.5000 )  

     reciprocal axes: (cart. coord. in units 2 pi/alat)
               b(1) = (  1.0000  0.0000  1.0000 )  
               b(2) = ( -1.0000  1.0000  0.0000 )  
               b(3) = (  0.0000 -1.0000  1.0000 )  


     Atoms inside the unit cell: 

     Cartesian axes

     site n.  atom      mass           positions (alat units)
        1     Nb  92.9060   tau(    1) = (    0.00000    0.00000    0.00000  )

     Computing dynamical matrix for 
                    q = (   0.0000000  -0.2500000   0.2500000 )

      4 Sym.Ops. (no q -> -q+G )


     G cutoff =  554.4726  (  27475 G-vectors)     FFT grid: ( 45, 45, 45)
     G cutoff =  277.2363  (   9693 G-vectors)  smooth grid: ( 30, 30, 30)

     number of k points=  1020  Marzari-Vanderbilt smearing, width (Ry)=  0.0300

     PseudoPot. # 1 for Nb read from file:
     ./pseudo/nb_pbe_v1.uspp.F.UPF
     MD5 check sum: 573aab8a2fa660278ed4a62cd769473f
     Pseudo is Ultrasoft + core correction, Zval = 13.0
     Generated by new atomic code, or converted to UPF format
     Using radial grid of  887 points,  6 beta functions with: 
                l(1) =   0
                l(2) =   0
                l(3) =   1
                l(4) =   1
                l(5) =   2
                l(6) =   2
     Q(r) pseudized with  6 coefficients,  rinner =    1.000   1.000   1.000
                                                       1.000   1.000

     Mode symmetry, C_2v (mm2)  point group:


     Atomic displacements:
     There are    3 irreducible representations

     Representation     1      1 modes -  To be done

     Representation     2      1 modes -  To be done

     Representation     3      1 modes -  To be done



     Alpha used in Ewald sum =   2.8000
     PHONON       :      6h 3m CPU      1h40m WALL



     Representation #   1 mode #   1

     Self-consistent Calculation

      iter #   1 total cpu time :  7183.1 secs   av.it.:   9.3
      thresh= 1.000E-02 alpha_mix =  0.300 |ddv_scf|^2 =  8.226E-02

      iter #   2 total cpu time :  8400.2 secs   av.it.:  11.2
      thresh= 1.000E-02 alpha_mix =  0.300 |ddv_scf|^2 =  4.161E+00

      iter #   3 total cpu time :  9544.1 secs   av.it.:  11.1
      thresh= 1.000E-02 alpha_mix =  0.300 |ddv_scf|^2 =  2.999E-04

      iter #   4 total cpu time : 10433.1 secs   av.it.:   7.9
      thresh= 1.732E-03 alpha_mix =  0.300 |ddv_scf|^2 =  1.049E-05

      iter #   5 total cpu time : 11459.4 secs   av.it.:   9.3
      thresh= 3.238E-04 alpha_mix =  0.300 |ddv_scf|^2 =  5.620E-07

      iter #   6 total cpu time : 12506.8 secs   av.it.:   9.8
      thresh= 7.496E-05 alpha_mix =  0.300 |ddv_scf|^2 =  5.263E-09

      iter #   7 total cpu time : 13582.0 secs   av.it.:  10.6
      thresh= 7.255E-06 alpha_mix =  0.300 |ddv_scf|^2 =  1.200E-09

      iter #   8 total cpu time : 14712.8 secs   av.it.:  11.1
      thresh= 3.464E-06 alpha_mix =  0.300 |ddv_scf|^2 =  1.158E-09

      iter #   9 total cpu time : 15620.3 secs   av.it.:   8.1
      thresh= 3.403E-06 alpha_mix =  0.300 |ddv_scf|^2 =  1.042E-11

      iter #  10 total cpu time : 16705.0 secs   av.it.:  10.6
      thresh= 3.228E-07 alpha_mix =  0.300 |ddv_scf|^2 =  1.704E-12

      iter #  11 total cpu time : 17913.4 secs   av.it.:  11.6
      thresh= 1.306E-07 alpha_mix =  0.300 |ddv_scf|^2 =  1.565E-13

      iter #  12 total cpu time : 19107.9 secs   av.it.:  11.0
      thresh= 3.956E-08 alpha_mix =  0.300 |ddv_scf|^2 =  1.183E-13

      iter #  13 total cpu time : 20297.2 secs   av.it.:  10.9
      thresh= 3.439E-08 alpha_mix =  0.300 |ddv_scf|^2 =  1.989E-14

      iter #  14 total cpu time : 21386.6 secs   av.it.:  10.2
      thresh= 1.410E-08 alpha_mix =  0.300 |ddv_scf|^2 =  1.097E-14

      iter #  15 total cpu time : 22427.6 secs   av.it.:   9.5
      thresh= 1.047E-08 alpha_mix =  0.300 |ddv_scf|^2 =  4.355E-14

      iter #  16 total cpu time : 23534.7 secs   av.it.:  10.0
      thresh= 2.087E-08 alpha_mix =  0.300 |ddv_scf|^2 =  1.535E-15

     End of self-consistent calculation

     Convergence has been achieved 


     Representation #   2 mode #   2

     Self-consistent Calculation

      iter #   1 total cpu time : 24458.4 secs   av.it.:   7.2
      thresh= 1.000E-02 alpha_mix =  0.300 |ddv_scf|^2 =  1.001E-05

      iter #   2 total cpu time : 25604.2 secs   av.it.:  10.0
      thresh= 3.164E-04 alpha_mix =  0.300 |ddv_scf|^2 =  2.467E-06

      iter #   3 total cpu time : 26766.6 secs   av.it.:  10.7
      thresh= 1.571E-04 alpha_mix =  0.300 |ddv_scf|^2 =  1.593E-08

      iter #   4 total cpu time : 27926.2 secs   av.it.:  11.3
      thresh= 1.262E-05 alpha_mix =  0.300 |ddv_scf|^2 =  1.795E-10

      iter #   5 total cpu time : 29081.7 secs   av.it.:  11.2
      thresh= 1.340E-06 alpha_mix =  0.300 |ddv_scf|^2 =  3.125E-11

      iter #   6 total cpu time : 30276.9 secs   av.it.:  11.5
      thresh= 5.591E-07 alpha_mix =  0.300 |ddv_scf|^2 =  4.995E-13

      iter #   7 total cpu time : 31494.1 secs   av.it.:  11.5
      thresh= 7.068E-08 alpha_mix =  0.300 |ddv_scf|^2 =  3.445E-14

      iter #   8 total cpu time : 32743.8 secs   av.it.:  11.4
      thresh= 1.856E-08 alpha_mix =  0.300 |ddv_scf|^2 =  7.051E-15

     End of self-consistent calculation

     Convergence has been achieved 


     Representation #   3 mode #   3

     Self-consistent Calculation

      iter #   1 total cpu time : 33646.2 secs   av.it.:   7.4
      thresh= 1.000E-02 alpha_mix =  0.300 |ddv_scf|^2 =  1.311E-05

      iter #   2 total cpu time : 34724.9 secs   av.it.:  10.1
      thresh= 3.621E-04 alpha_mix =  0.300 |ddv_scf|^2 =  2.951E-06

      iter #   3 total cpu time : 35892.8 secs   av.it.:  10.9
      thresh= 1.718E-04 alpha_mix =  0.300 |ddv_scf|^2 =  1.922E-08

      iter #   4 total cpu time : 37135.7 secs   av.it.:  11.6
      thresh= 1.386E-05 alpha_mix =  0.300 |ddv_scf|^2 =  3.955E-10

      iter #   5 total cpu time : 38335.9 secs   av.it.:  11.1
      thresh= 1.989E-06 alpha_mix =  0.300 |ddv_scf|^2 =  7.243E-11

      iter #   6 total cpu time : 39526.8 secs   av.it.:  11.5
      thresh= 8.511E-07 alpha_mix =  0.300 |ddv_scf|^2 =  2.690E-12

      iter #   7 total cpu time : 40748.4 secs   av.it.:  11.6
      thresh= 1.640E-07 alpha_mix =  0.300 |ddv_scf|^2 =  2.536E-14

      iter #   8 total cpu time : 41949.1 secs   av.it.:  11.0
      thresh= 1.592E-08 alpha_mix =  0.300 |ddv_scf|^2 =  8.186E-15

     End of self-consistent calculation

     Convergence has been achieved 

     Number of q in the star =   12
     List of q in the star:
          1   0.000000000  -0.250000000   0.250000000
          2  -0.250000000   0.250000000   0.000000000
          3   0.250000000   0.250000000   0.000000000
          4  -0.250000000  -0.250000000   0.000000000
          5   0.250000000  -0.250000000   0.000000000
          6   0.250000000   0.000000000  -0.250000000
          7   0.250000000   0.000000000   0.250000000
          8  -0.250000000   0.000000000  -0.250000000
          9  -0.250000000   0.000000000   0.250000000
         10   0.000000000  -0.250000000  -0.250000000
         11   0.000000000   0.250000000  -0.250000000
         12   0.000000000   0.250000000   0.250000000

     Diagonalizing the dynamical matrix

     q = (    0.000000000  -0.250000000   0.250000000 ) 

 **************************************************************************
     freq (    1) =       2.086929 [THz] =      69.612468 [cm-1]
     freq (    2) =       2.725008 [THz] =      90.896480 [cm-1]
     freq (    3) =       4.104314 [THz] =     136.905169 [cm-1]
 **************************************************************************

     Mode symmetry, C_2v (mm2)  point group:

     freq (   1-   1) =         69.6  [cm-1]   --> B_2  D_4  S_4      
     freq (   2-   2) =         90.9  [cm-1]   --> B_1  D_3  S_3      
     freq (   3-   3) =        136.9  [cm-1]   --> A_1  D_1  S_1      

     Calculation of q =    0.0000000   0.5000000  -0.5000000

     G-vector sticks info
     --------------------
     sticks:   dense  smooth     PW     G-vecs:    dense   smooth      PW
     Sum        1243     619    221                27475     9693    2123

     Using Slab Decomposition


     Title: 
     Phonon dispersion for Nb BCC - Publication 4x4x4                           


     bravais-lattice index     =            3
     lattice parameter (alat)  =       6.2521  a.u.
     unit-cell volume          =     122.1934 (a.u.)^3
     number of atoms/cell      =            1
     number of atomic types    =            1
     number of electrons       =        13.00
     number of Kohn-Sham states=           11
     kinetic-energy cutoff     =      70.0000  Ry
     charge density cutoff     =     560.0000  Ry
     Exchange-correlation= PBE
                           (   1   4   3   4   0   0   0)

     celldm(1)=   6.252100  celldm(2)=   0.000000  celldm(3)=   0.000000
     celldm(4)=   0.000000  celldm(5)=   0.000000  celldm(6)=   0.000000

     crystal axes: (cart. coord. in units of alat)
               a(1) = (   0.500000   0.500000   0.500000 )  
               a(2) = (  -0.500000   0.500000   0.500000 )  
               a(3) = (  -0.500000  -0.500000   0.500000 )  

     reciprocal axes: (cart. coord. in units 2 pi/alat)
               b(1) = (  1.000000  0.000000  1.000000 )  
               b(2) = ( -1.000000  1.000000  0.000000 )  
               b(3) = (  0.000000 -1.000000  1.000000 )  


     PseudoPot. # 1 for Nb read from file:
     ./pseudo/nb_pbe_v1.uspp.F.UPF
     MD5 check sum: 573aab8a2fa660278ed4a62cd769473f
     Pseudo is Ultrasoft + core correction, Zval = 13.0
     Generated by new atomic code, or converted to UPF format
     Using radial grid of  887 points,  6 beta functions with: 
                l(1) =   0
                l(2) =   0
                l(3) =   1
                l(4) =   1
                l(5) =   2
                l(6) =   2
     Q(r) pseudized with  6 coefficients,  rinner =    1.000   1.000   1.000
                                                       1.000   1.000

     atomic species   valence    mass     pseudopotential
        Nb            13.00    92.90600     Nb( 1.00)

     48 Sym. Ops., with inversion, found



   Cartesian axes

     site n.     atom                  positions (alat units)
         1           Nb  tau(   1) = (   0.0000000   0.0000000   0.0000000  )

     number of k points=   560  Marzari-Vanderbilt smearing, width (Ry)=  0.0300

     Number of k-points >= 100: set verbosity='high' to print them.

     Dense  grid:    27475 G-vectors     FFT dimensions: (  45,  45,  45)

     Smooth grid:     9693 G-vectors     FFT dimensions: (  30,  30,  30)

     Estimated max dynamical RAM per process >      90.61 MB

     The potential is recalculated from file :
     ./tmp/_ph0/Nb.save/charge-density

     Starting wfcs are   13 atomic wfcs

     Band Structure Calculation
     Davidson diagonalization with overlap

     ethr =  7.69E-11,  avg # of iterations = 13.6

     total cpu time spent up to now is     4491.8 secs

     End of band structure calculation

     Number of k-points >= 100: set verbosity='high' to print the bands.

     the Fermi energy is    17.8709 ev

     Writing config to output data dir ./tmp/_ph0/Nb.save/

     Phonon dispersion for Nb BCC - Publication 4x4x4                           

     bravais-lattice index     =            3
     lattice parameter (alat)  =       6.2521  a.u.
     unit-cell volume          =     122.1934 (a.u.)^3
     number of atoms/cell      =            1
     number of atomic types    =            1
     kinetic-energy cut-off    =      70.0000  Ry
     charge density cut-off    =     560.0000  Ry
     convergence threshold     =      1.0E-14
     beta                      =       0.3000
     number of iterations used =            4
     Exchange-correlation= PBE
                           (   1   4   3   4   0   0   0)


     celldm(1)=    6.25210  celldm(2)=    0.00000  celldm(3)=    0.00000
     celldm(4)=    0.00000  celldm(5)=    0.00000  celldm(6)=    0.00000

     crystal axes: (cart. coord. in units of alat)
               a(1) = (  0.5000  0.5000  0.5000 )  
               a(2) = ( -0.5000  0.5000  0.5000 )  
               a(3) = ( -0.5000 -0.5000  0.5000 )  

     reciprocal axes: (cart. coord. in units 2 pi/alat)
               b(1) = (  1.0000  0.0000  1.0000 )  
               b(2) = ( -1.0000  1.0000  0.0000 )  
               b(3) = (  0.0000 -1.0000  1.0000 )  


     Atoms inside the unit cell: 

     Cartesian axes

     site n.  atom      mass           positions (alat units)
        1     Nb  92.9060   tau(    1) = (    0.00000    0.00000    0.00000  )

     Computing dynamical matrix for 
                    q = (   0.0000000   0.5000000  -0.5000000 )

      9 Sym.Ops. (with q -> -q+G )


     G cutoff =  554.4726  (  27475 G-vectors)     FFT grid: ( 45, 45, 45)
     G cutoff =  277.2363  (   9693 G-vectors)  smooth grid: ( 30, 30, 30)

     number of k points=   560  Marzari-Vanderbilt smearing, width (Ry)=  0.0300

     PseudoPot. # 1 for Nb read from file:
     ./pseudo/nb_pbe_v1.uspp.F.UPF
     MD5 check sum: 573aab8a2fa660278ed4a62cd769473f
     Pseudo is Ultrasoft + core correction, Zval = 13.0
     Generated by new atomic code, or converted to UPF format
     Using radial grid of  887 points,  6 beta functions with: 
                l(1) =   0
                l(2) =   0
                l(3) =   1
                l(4) =   1
                l(5) =   2
                l(6) =   2
     Q(r) pseudized with  6 coefficients,  rinner =    1.000   1.000   1.000
                                                       1.000   1.000

     Mode symmetry, D_2h (mmm)  point group:


     Atomic displacements:
     There are    3 irreducible representations

     Representation     1      1 modes -  To be done

     Representation     2      1 modes -  To be done

     Representation     3      1 modes -  To be done



     Alpha used in Ewald sum =   2.8000
     PHONON       :   1d21h16m CPU     12h 7m WALL



     Representation #   1 mode #   1

     Self-consistent Calculation

      iter #   1 total cpu time : 44167.3 secs   av.it.:   7.2
      thresh= 1.000E-02 alpha_mix =  0.300 |ddv_scf|^2 =  1.704E-05

      iter #   2 total cpu time : 44803.2 secs   av.it.:   9.8
      thresh= 4.128E-04 alpha_mix =  0.300 |ddv_scf|^2 =  3.592E-06

      iter #   3 total cpu time : 45494.7 secs   av.it.:  10.6
      thresh= 1.895E-04 alpha_mix =  0.300 |ddv_scf|^2 =  1.320E-08

      iter #   4 total cpu time : 46185.4 secs   av.it.:  10.9
      thresh= 1.149E-05 alpha_mix =  0.300 |ddv_scf|^2 =  3.678E-10

      iter #   5 total cpu time : 46855.1 secs   av.it.:  10.3
      thresh= 1.918E-06 alpha_mix =  0.300 |ddv_scf|^2 =  6.579E-11

      iter #   6 total cpu time : 47572.1 secs   av.it.:  11.1
      thresh= 8.111E-07 alpha_mix =  0.300 |ddv_scf|^2 =  3.082E-13

      iter #   7 total cpu time : 48202.7 secs   av.it.:  10.1
      thresh= 5.552E-08 alpha_mix =  0.300 |ddv_scf|^2 =  6.713E-14

      iter #   8 total cpu time : 48888.0 secs   av.it.:  10.7
      thresh= 2.591E-08 alpha_mix =  0.300 |ddv_scf|^2 =  6.525E-16

     End of self-consistent calculation

     Convergence has been achieved 


     Representation #   2 mode #   2

     Self-consistent Calculation

      iter #   1 total cpu time : 49410.1 secs   av.it.:   7.1
      thresh= 1.000E-02 alpha_mix =  0.300 |ddv_scf|^2 =  1.118E-05

      iter #   2 total cpu time : 49992.8 secs   av.it.:   9.8
      thresh= 3.343E-04 alpha_mix =  0.300 |ddv_scf|^2 =  2.647E-06

      iter #   3 total cpu time : 50691.8 secs   av.it.:  10.5
      thresh= 1.627E-04 alpha_mix =  0.300 |ddv_scf|^2 =  1.693E-08

      iter #   4 total cpu time : 51406.3 secs   av.it.:  10.9
      thresh= 1.301E-05 alpha_mix =  0.300 |ddv_scf|^2 =  1.401E-10

      iter #   5 total cpu time : 52143.4 secs   av.it.:  10.9
      thresh= 1.184E-06 alpha_mix =  0.300 |ddv_scf|^2 =  1.632E-11

      iter #   6 total cpu time : 52862.6 secs   av.it.:  11.0
      thresh= 4.040E-07 alpha_mix =  0.300 |ddv_scf|^2 =  2.910E-13

      iter #   7 total cpu time : 53554.8 secs   av.it.:  10.4
      thresh= 5.394E-08 alpha_mix =  0.300 |ddv_scf|^2 =  2.989E-14

      iter #   8 total cpu time : 54255.3 secs   av.it.:  10.8
      thresh= 1.729E-08 alpha_mix =  0.300 |ddv_scf|^2 =  9.574E-16

     End of self-consistent calculation

     Convergence has been achieved 


     Representation #   3 mode #   3

     Self-consistent Calculation

      iter #   1 total cpu time : 54856.0 secs   av.it.:   8.2
      thresh= 1.000E-02 alpha_mix =  0.300 |ddv_scf|^2 =  5.525E-04

      iter #   2 total cpu time : 55483.0 secs   av.it.:   9.5
      thresh= 2.350E-03 alpha_mix =  0.300 |ddv_scf|^2 =  8.518E-06

      iter #   3 total cpu time : 56104.6 secs   av.it.:   9.3
      thresh= 2.919E-04 alpha_mix =  0.300 |ddv_scf|^2 =  1.102E-07

      iter #   4 total cpu time : 56786.7 secs   av.it.:  11.1
      thresh= 3.319E-05 alpha_mix =  0.300 |ddv_scf|^2 =  2.394E-09

      iter #   5 total cpu time : 57388.5 secs   av.it.:  10.0
      thresh= 4.893E-06 alpha_mix =  0.300 |ddv_scf|^2 =  6.657E-10

      iter #   6 total cpu time : 58032.1 secs   av.it.:  11.0
      thresh= 2.580E-06 alpha_mix =  0.300 |ddv_scf|^2 =  3.119E-12

      iter #   7 total cpu time : 58677.0 secs   av.it.:  10.9
      thresh= 1.766E-07 alpha_mix =  0.300 |ddv_scf|^2 =  7.348E-14

      iter #   8 total cpu time : 59348.0 secs   av.it.:  10.7
      thresh= 2.711E-08 alpha_mix =  0.300 |ddv_scf|^2 =  8.923E-15

     End of self-consistent calculation

     Convergence has been achieved 

     Number of q in the star =    6
     List of q in the star:
          1   0.000000000   0.500000000  -0.500000000
          2  -0.500000000   0.000000000   0.500000000
          3  -0.500000000   0.000000000  -0.500000000
          4   0.000000000   0.500000000   0.500000000
          5   0.500000000   0.500000000   0.000000000
          6  -0.500000000   0.500000000   0.000000000

     Diagonalizing the dynamical matrix

     q = (    0.000000000   0.500000000  -0.500000000 ) 

 **************************************************************************
     freq (    1) =       3.915898 [THz] =     130.620303 [cm-1]
     freq (    2) =       4.934446 [THz] =     164.595397 [cm-1]
     freq (    3) =       5.194856 [THz] =     173.281742 [cm-1]
 **************************************************************************

     Mode symmetry, D_2h (mmm)  point group:

     freq (   1-   1) =        130.6  [cm-1]   --> B_2u               
     freq (   2-   2) =        164.6  [cm-1]   --> B_1u               
     freq (   3-   3) =        173.3  [cm-1]   --> B_3u               

     Calculation of q =   -0.2500000   0.7500000  -0.5000000

     G-vector sticks info
     --------------------
     sticks:   dense  smooth     PW     G-vecs:    dense   smooth      PW
     Sum        1243     619    229                27475     9693    2171

     Using Slab Decomposition


     Title: 
     Phonon dispersion for Nb BCC - Publication 4x4x4                           


     bravais-lattice index     =            3
     lattice parameter (alat)  =       6.2521  a.u.
     unit-cell volume          =     122.1934 (a.u.)^3
     number of atoms/cell      =            1
     number of atomic types    =            1
     number of electrons       =        13.00
     number of Kohn-Sham states=           11
     kinetic-energy cutoff     =      70.0000  Ry
     charge density cutoff     =     560.0000  Ry
     Exchange-correlation= PBE
                           (   1   4   3   4   0   0   0)

     celldm(1)=   6.252100  celldm(2)=   0.000000  celldm(3)=   0.000000
     celldm(4)=   0.000000  celldm(5)=   0.000000  celldm(6)=   0.000000

     crystal axes: (cart. coord. in units of alat)
               a(1) = (   0.500000   0.500000   0.500000 )  
               a(2) = (  -0.500000   0.500000   0.500000 )  
               a(3) = (  -0.500000  -0.500000   0.500000 )  

     reciprocal axes: (cart. coord. in units 2 pi/alat)
               b(1) = (  1.000000  0.000000  1.000000 )  
               b(2) = ( -1.000000  1.000000  0.000000 )  
               b(3) = (  0.000000 -1.000000  1.000000 )  


     PseudoPot. # 1 for Nb read from file:
     ./pseudo/nb_pbe_v1.uspp.F.UPF
     MD5 check sum: 573aab8a2fa660278ed4a62cd769473f
     Pseudo is Ultrasoft + core correction, Zval = 13.0
     Generated by new atomic code, or converted to UPF format
     Using radial grid of  887 points,  6 beta functions with: 
                l(1) =   0
                l(2) =   0
                l(3) =   1
                l(4) =   1
                l(5) =   2
                l(6) =   2
     Q(r) pseudized with  6 coefficients,  rinner =    1.000   1.000   1.000
                                                       1.000   1.000

     atomic species   valence    mass     pseudopotential
        Nb            13.00    92.90600     Nb( 1.00)

     48 Sym. Ops., with inversion, found



   Cartesian axes

     site n.     atom                  positions (alat units)
         1           Nb  tau(   1) = (   0.0000000   0.0000000   0.0000000  )

     number of k points=  1872  Marzari-Vanderbilt smearing, width (Ry)=  0.0300

     Number of k-points >= 100: set verbosity='high' to print them.

     Dense  grid:    27475 G-vectors     FFT dimensions: (  45,  45,  45)

     Smooth grid:     9693 G-vectors     FFT dimensions: (  30,  30,  30)

     Estimated max dynamical RAM per process >      90.63 MB

     The potential is recalculated from file :
     ./tmp/_ph0/Nb.save/charge-density

     Starting wfcs are   13 atomic wfcs

     Band Structure Calculation
     Davidson diagonalization with overlap

     ethr =  7.69E-11,  avg # of iterations = 13.8

     total cpu time spent up to now is    10092.6 secs

     End of band structure calculation

     Number of k-points >= 100: set verbosity='high' to print the bands.

     the Fermi energy is    17.8709 ev

     Writing config to output data dir ./tmp/_ph0/Nb.save/

     Phonon dispersion for Nb BCC - Publication 4x4x4                           

     bravais-lattice index     =            3
     lattice parameter (alat)  =       6.2521  a.u.
     unit-cell volume          =     122.1934 (a.u.)^3
     number of atoms/cell      =            1
     number of atomic types    =            1
     kinetic-energy cut-off    =      70.0000  Ry
     charge density cut-off    =     560.0000  Ry
     convergence threshold     =      1.0E-14
     beta                      =       0.3000
     number of iterations used =            4
     Exchange-correlation= PBE
                           (   1   4   3   4   0   0   0)


     celldm(1)=    6.25210  celldm(2)=    0.00000  celldm(3)=    0.00000
     celldm(4)=    0.00000  celldm(5)=    0.00000  celldm(6)=    0.00000

     crystal axes: (cart. coord. in units of alat)
               a(1) = (  0.5000  0.5000  0.5000 )  
               a(2) = ( -0.5000  0.5000  0.5000 )  
               a(3) = ( -0.5000 -0.5000  0.5000 )  

     reciprocal axes: (cart. coord. in units 2 pi/alat)
               b(1) = (  1.0000  0.0000  1.0000 )  
               b(2) = ( -1.0000  1.0000  0.0000 )  
               b(3) = (  0.0000 -1.0000  1.0000 )  


     Atoms inside the unit cell: 

     Cartesian axes

     site n.  atom      mass           positions (alat units)
        1     Nb  92.9060   tau(    1) = (    0.00000    0.00000    0.00000  )

     Computing dynamical matrix for 
                    q = (  -0.2500000   0.7500000  -0.5000000 )

      2 Sym.Ops. (no q -> -q+G )


     G cutoff =  554.4726  (  27475 G-vectors)     FFT grid: ( 45, 45, 45)
     G cutoff =  277.2363  (   9693 G-vectors)  smooth grid: ( 30, 30, 30)

     number of k points=  1872  Marzari-Vanderbilt smearing, width (Ry)=  0.0300

     PseudoPot. # 1 for Nb read from file:
     ./pseudo/nb_pbe_v1.uspp.F.UPF
     MD5 check sum: 573aab8a2fa660278ed4a62cd769473f
     Pseudo is Ultrasoft + core correction, Zval = 13.0
     Generated by new atomic code, or converted to UPF format
     Using radial grid of  887 points,  6 beta functions with: 
                l(1) =   0
                l(2) =   0
                l(3) =   1
                l(4) =   1
                l(5) =   2
                l(6) =   2
     Q(r) pseudized with  6 coefficients,  rinner =    1.000   1.000   1.000
                                                       1.000   1.000

     Mode symmetry, C_s (m)     point group:


     Atomic displacements:
     There are    3 irreducible representations

     Representation     1      1 modes -  To be done

     Representation     2      1 modes -  To be done

     Representation     3      1 modes -  To be done



     Alpha used in Ewald sum =   2.8000
     PHONON       :   2d19h 5m CPU     18h 9m WALL



     Representation #   1 mode #   1

     Self-consistent Calculation

      iter #   1 total cpu time : 67414.4 secs   av.it.:   8.8
      thresh= 1.000E-02 alpha_mix =  0.300 |ddv_scf|^2 =  1.271E-03

      iter #   2 total cpu time : 69710.7 secs   av.it.:  10.7
      thresh= 3.566E-03 alpha_mix =  0.300 |ddv_scf|^2 =  3.828E-03

      iter #   3 total cpu time : 71785.9 secs   av.it.:   9.4
      thresh= 6.187E-03 alpha_mix =  0.300 |ddv_scf|^2 =  7.423E-05

      iter #   4 total cpu time : 73862.8 secs   av.it.:   9.7
      thresh= 8.616E-04 alpha_mix =  0.300 |ddv_scf|^2 =  2.393E-07

      iter #   5 total cpu time : 76254.7 secs   av.it.:  11.6
      thresh= 4.892E-05 alpha_mix =  0.300 |ddv_scf|^2 =  6.162E-09

      iter #   6 total cpu time : 78533.7 secs   av.it.:  10.8
      thresh= 7.850E-06 alpha_mix =  0.300 |ddv_scf|^2 =  1.377E-09

      iter #   7 total cpu time : 80918.3 secs   av.it.:  11.7
      thresh= 3.710E-06 alpha_mix =  0.300 |ddv_scf|^2 =  6.477E-11

      iter #   8 total cpu time : 83492.5 secs   av.it.:  11.8
      thresh= 8.048E-07 alpha_mix =  0.300 |ddv_scf|^2 =  5.027E-12

      iter #   9 total cpu time : 86009.8 secs   av.it.:  11.6
      thresh= 2.242E-07 alpha_mix =  0.300 |ddv_scf|^2 =  4.681E-12

      iter #  10 total cpu time : 88181.2 secs   av.it.:  10.4
      thresh= 2.163E-07 alpha_mix =  0.300 |ddv_scf|^2 =  5.087E-13

      iter #  11 total cpu time : 90509.5 secs   av.it.:  10.9
      thresh= 7.132E-08 alpha_mix =  0.300 |ddv_scf|^2 =  3.630E-13

      iter #  12 total cpu time : 93029.9 secs   av.it.:  11.6
      thresh= 6.025E-08 alpha_mix =  0.300 |ddv_scf|^2 =  1.122E-14

      iter #  13 total cpu time : 95487.2 secs   av.it.:  11.7
      thresh= 1.059E-08 alpha_mix =  0.300 |ddv_scf|^2 =  4.510E-15

     End of self-consistent calculation

     Convergence has been achieved 


     Representation #   2 mode #   2

     Self-consistent Calculation

      iter #   1 total cpu time : 97480.8 secs   av.it.:   8.2
      thresh= 1.000E-02 alpha_mix =  0.300 |ddv_scf|^2 =  2.786E-04

      iter #   2 total cpu time : 99823.4 secs   av.it.:  10.8
      thresh= 1.669E-03 alpha_mix =  0.300 |ddv_scf|^2 =  9.207E-04

      iter #   3 total cpu time :101916.7 secs   av.it.:   9.3
      thresh= 3.034E-03 alpha_mix =  0.300 |ddv_scf|^2 =  1.134E-05

      iter #   4 total cpu time :104143.8 secs   av.it.:  10.5
      thresh= 3.368E-04 alpha_mix =  0.300 |ddv_scf|^2 =  5.024E-07

      iter #   5 total cpu time :106439.7 secs   av.it.:  11.0
      thresh= 7.088E-05 alpha_mix =  0.300 |ddv_scf|^2 =  8.493E-09

      iter #   6 total cpu time :108998.2 secs   av.it.:  11.8
      thresh= 9.216E-06 alpha_mix =  0.300 |ddv_scf|^2 =  5.593E-10

      iter #   7 total cpu time :111556.6 secs   av.it.:  11.5
      thresh= 2.365E-06 alpha_mix =  0.300 |ddv_scf|^2 =  1.473E-10

      iter #   8 total cpu time :114341.7 secs   av.it.:  11.8
      thresh= 1.214E-06 alpha_mix =  0.300 |ddv_scf|^2 =  2.971E-12

      iter #   9 total cpu time :116856.8 secs   av.it.:  11.3
      thresh= 1.724E-07 alpha_mix =  0.300 |ddv_scf|^2 =  2.941E-12

      iter #  10 total cpu time :119359.3 secs   av.it.:  10.6
      thresh= 1.715E-07 alpha_mix =  0.300 |ddv_scf|^2 =  1.398E-12

      iter #  11 total cpu time :122121.6 secs   av.it.:  11.7
      thresh= 1.182E-07 alpha_mix =  0.300 |ddv_scf|^2 =  5.696E-13

      iter #  12 total cpu time :124812.1 secs   av.it.:  11.2
      thresh= 7.547E-08 alpha_mix =  0.300 |ddv_scf|^2 =  1.258E-14

      iter #  13 total cpu time :127593.4 secs   av.it.:  11.9
      thresh= 1.121E-08 alpha_mix =  0.300 |ddv_scf|^2 =  3.816E-15

     End of self-consistent calculation

     Convergence has been achieved 


     Representation #   3 mode #   3

     Self-consistent Calculation

      iter #   1 total cpu time :129670.0 secs   av.it.:   8.0
      thresh= 1.000E-02 alpha_mix =  0.300 |ddv_scf|^2 =  5.381E-05

      iter #   2 total cpu time :131921.6 secs   av.it.:  10.3
      thresh= 7.335E-04 alpha_mix =  0.300 |ddv_scf|^2 =  3.990E-06

      iter #   3 total cpu time :134527.5 secs   av.it.:  10.8
      thresh= 1.998E-04 alpha_mix =  0.300 |ddv_scf|^2 =  1.250E-07

      iter #   4 total cpu time :137195.3 secs   av.it.:  11.7
      thresh= 3.535E-05 alpha_mix =  0.300 |ddv_scf|^2 =  2.616E-09

      iter #   5 total cpu time :139813.6 secs   av.it.:  11.4
      thresh= 5.115E-06 alpha_mix =  0.300 |ddv_scf|^2 =  3.713E-10

      iter #   6 total cpu time :142505.0 secs   av.it.:  11.8
      thresh= 1.927E-06 alpha_mix =  0.300 |ddv_scf|^2 =  5.623E-12

      iter #   7 total cpu time :145248.3 secs   av.it.:  12.1
      thresh= 2.371E-07 alpha_mix =  0.300 |ddv_scf|^2 =  1.453E-13

      iter #   8 total cpu time :147852.0 secs   av.it.:  11.1
      thresh= 3.812E-08 alpha_mix =  0.300 |ddv_scf|^2 =  4.897E-14

      iter #   9 total cpu time :150378.2 secs   av.it.:  11.8
      thresh= 2.213E-08 alpha_mix =  0.300 |ddv_scf|^2 =  1.439E-15

     End of self-consistent calculation

     Convergence has been achieved 

     Number of q in the star =   24
     List of q in the star:
          1  -0.250000000   0.750000000  -0.500000000
          2   0.250000000   0.750000000  -0.500000000
          3   0.250000000   0.500000000  -0.750000000
          4  -0.250000000  -0.750000000   0.500000000
          5   0.250000000  -0.750000000   0.500000000
          6  -0.250000000  -0.500000000   0.750000000
          7   0.250000000  -0.500000000   0.750000000
          8  -0.500000000  -0.250000000   0.750000000
          9  -0.500000000   0.250000000  -0.750000000
         10   0.500000000   0.250000000   0.750000000
         11   0.500000000  -0.250000000  -0.750000000
         12  -0.250000000   0.500000000  -0.750000000
         13   0.250000000   0.750000000   0.500000000
         14   0.250000000  -0.750000000  -0.500000000
         15   0.250000000   0.500000000   0.750000000
         16   0.250000000  -0.500000000  -0.750000000
         17  -0.250000000   0.750000000   0.500000000
         18  -0.250000000  -0.500000000  -0.750000000
         19  -0.250000000   0.500000000   0.750000000
         20  -0.250000000  -0.750000000  -0.500000000
         21  -0.500000000  -0.750000000  -0.250000000
         22   0.500000000  -0.750000000   0.250000000
         23  -0.500000000   0.750000000   0.250000000
         24   0.500000000   0.750000000  -0.250000000

     Diagonalizing the dynamical matrix

     q = (   -0.250000000   0.750000000  -0.500000000 ) 

 **************************************************************************
     freq (    1) =       3.607585 [THz] =     120.336095 [cm-1]
     freq (    2) =       3.663380 [THz] =     122.197199 [cm-1]
     freq (    3) =       5.657085 [THz] =     188.700049 [cm-1]
 **************************************************************************

     Mode symmetry, C_s (m)     point group:

     freq (   1-   1) =        120.3  [cm-1]   --> A'                 
     freq (   2-   2) =        122.2  [cm-1]   --> A''                
     freq (   3-   3) =        188.7  [cm-1]   --> A'                 

     Calculation of q =    0.0000000   0.0000000   0.5000000

     G-vector sticks info
     --------------------
     sticks:   dense  smooth     PW     G-vecs:    dense   smooth      PW
     Sum        1243     619    213                27475     9693    1961

     Using Slab Decomposition


     Title: 
     Phonon dispersion for Nb BCC - Publication 4x4x4                           


     bravais-lattice index     =            3
     lattice parameter (alat)  =       6.2521  a.u.
     unit-cell volume          =     122.1934 (a.u.)^3
     number of atoms/cell      =            1
     number of atomic types    =            1
     number of electrons       =        13.00
     number of Kohn-Sham states=           11
     kinetic-energy cutoff     =      70.0000  Ry
     charge density cutoff     =     560.0000  Ry
     Exchange-correlation= PBE
                           (   1   4   3   4   0   0   0)

     celldm(1)=   6.252100  celldm(2)=   0.000000  celldm(3)=   0.000000
     celldm(4)=   0.000000  celldm(5)=   0.000000  celldm(6)=   0.000000

     crystal axes: (cart. coord. in units of alat)
               a(1) = (   0.500000   0.500000   0.500000 )  
               a(2) = (  -0.500000   0.500000   0.500000 )  
               a(3) = (  -0.500000  -0.500000   0.500000 )  

     reciprocal axes: (cart. coord. in units 2 pi/alat)
               b(1) = (  1.000000  0.000000  1.000000 )  
               b(2) = ( -1.000000  1.000000  0.000000 )  
               b(3) = (  0.000000 -1.000000  1.000000 )  


     PseudoPot. # 1 for Nb read from file:
     ./pseudo/nb_pbe_v1.uspp.F.UPF
     MD5 check sum: 573aab8a2fa660278ed4a62cd769473f
     Pseudo is Ultrasoft + core correction, Zval = 13.0
     Generated by new atomic code, or converted to UPF format
     Using radial grid of  887 points,  6 beta functions with: 
                l(1) =   0
                l(2) =   0
                l(3) =   1
                l(4) =   1
                l(5) =   2
                l(6) =   2
     Q(r) pseudized with  6 coefficients,  rinner =    1.000   1.000   1.000
                                                       1.000   1.000

     atomic species   valence    mass     pseudopotential
        Nb            13.00    92.90600     Nb( 1.00)

     48 Sym. Ops., with inversion, found



   Cartesian axes

     site n.     atom                  positions (alat units)
         1           Nb  tau(   1) = (   0.0000000   0.0000000   0.0000000  )

     number of k points=   588  Marzari-Vanderbilt smearing, width (Ry)=  0.0300

     Number of k-points >= 100: set verbosity='high' to print them.

     Dense  grid:    27475 G-vectors     FFT dimensions: (  45,  45,  45)

     Smooth grid:     9693 G-vectors     FFT dimensions: (  30,  30,  30)

     Estimated max dynamical RAM per process >      90.60 MB

     The potential is recalculated from file :
     ./tmp/_ph0/Nb.save/charge-density

     Starting wfcs are   13 atomic wfcs

     Band Structure Calculation
     Davidson diagonalization with overlap

     ethr =  7.69E-11,  avg # of iterations = 13.6

     total cpu time spent up to now is    11777.4 secs

     End of band structure calculation

     Number of k-points >= 100: set verbosity='high' to print the bands.

     the Fermi energy is    17.8709 ev

     Writing config to output data dir ./tmp/_ph0/Nb.save/

     Phonon dispersion for Nb BCC - Publication 4x4x4                           

     bravais-lattice index     =            3
     lattice parameter (alat)  =       6.2521  a.u.
     unit-cell volume          =     122.1934 (a.u.)^3
     number of atoms/cell      =            1
     number of atomic types    =            1
     kinetic-energy cut-off    =      70.0000  Ry
     charge density cut-off    =     560.0000  Ry
     convergence threshold     =      1.0E-14
     beta                      =       0.3000
     number of iterations used =            4
     Exchange-correlation= PBE
                           (   1   4   3   4   0   0   0)


     celldm(1)=    6.25210  celldm(2)=    0.00000  celldm(3)=    0.00000
     celldm(4)=    0.00000  celldm(5)=    0.00000  celldm(6)=    0.00000

     crystal axes: (cart. coord. in units of alat)
               a(1) = (  0.5000  0.5000  0.5000 )  
               a(2) = ( -0.5000  0.5000  0.5000 )  
               a(3) = ( -0.5000 -0.5000  0.5000 )  

     reciprocal axes: (cart. coord. in units 2 pi/alat)
               b(1) = (  1.0000  0.0000  1.0000 )  
               b(2) = ( -1.0000  1.0000  0.0000 )  
               b(3) = (  0.0000 -1.0000  1.0000 )  


     Atoms inside the unit cell: 

     Cartesian axes

     site n.  atom      mass           positions (alat units)
        1     Nb  92.9060   tau(    1) = (    0.00000    0.00000    0.00000  )

     Computing dynamical matrix for 
                    q = (   0.0000000   0.0000000   0.5000000 )

      8 Sym.Ops. (no q -> -q+G )


     G cutoff =  554.4726  (  27475 G-vectors)     FFT grid: ( 45, 45, 45)
     G cutoff =  277.2363  (   9693 G-vectors)  smooth grid: ( 30, 30, 30)

     number of k points=   588  Marzari-Vanderbilt smearing, width (Ry)=  0.0300

     PseudoPot. # 1 for Nb read from file:
     ./pseudo/nb_pbe_v1.uspp.F.UPF
     MD5 check sum: 573aab8a2fa660278ed4a62cd769473f
     Pseudo is Ultrasoft + core correction, Zval = 13.0
     Generated by new atomic code, or converted to UPF format
     Using radial grid of  887 points,  6 beta functions with: 
                l(1) =   0
                l(2) =   0
                l(3) =   1
                l(4) =   1
                l(5) =   2
                l(6) =   2
     Q(r) pseudized with  6 coefficients,  rinner =    1.000   1.000   1.000
                                                       1.000   1.000

     Mode symmetry, C_4v (4mm)  point group:


     Atomic displacements:
     There are    2 irreducible representations

     Representation     1      1 modes -  To be done

     Representation     2      2 modes -  To be done



     Alpha used in Ewald sum =   2.8000
     PHONON       :   6d 7h26m CPU   1d18h16m WALL



     Representation #   1 mode #   1

     Self-consistent Calculation

      iter #   1 total cpu time :152827.7 secs   av.it.:   8.8
      thresh= 1.000E-02 alpha_mix =  0.300 |ddv_scf|^2 =  7.901E-03

      iter #   2 total cpu time :153433.5 secs   av.it.:   9.9
      thresh= 8.889E-03 alpha_mix =  0.300 |ddv_scf|^2 =  7.486E-02

      iter #   3 total cpu time :154029.7 secs   av.it.:   9.4
      thresh= 1.000E-02 alpha_mix =  0.300 |ddv_scf|^2 =  6.917E-05

      iter #   4 total cpu time :154603.6 secs   av.it.:   8.8
      thresh= 8.317E-04 alpha_mix =  0.300 |ddv_scf|^2 =  3.521E-07

      iter #   5 total cpu time :155254.8 secs   av.it.:  10.4
      thresh= 5.934E-05 alpha_mix =  0.300 |ddv_scf|^2 =  1.408E-07

      iter #   6 total cpu time :155970.3 secs   av.it.:  10.3
      thresh= 3.752E-05 alpha_mix =  0.300 |ddv_scf|^2 =  9.698E-10

      iter #   7 total cpu time :156735.8 secs   av.it.:  11.2
      thresh= 3.114E-06 alpha_mix =  0.300 |ddv_scf|^2 =  8.831E-11

      iter #   8 total cpu time :157445.1 secs   av.it.:  11.3
      thresh= 9.397E-07 alpha_mix =  0.300 |ddv_scf|^2 =  2.638E-12

      iter #   9 total cpu time :158190.0 secs   av.it.:  11.2
      thresh= 1.624E-07 alpha_mix =  0.300 |ddv_scf|^2 =  8.231E-13

      iter #  10 total cpu time :158818.4 secs   av.it.:   9.7
      thresh= 9.072E-08 alpha_mix =  0.300 |ddv_scf|^2 =  6.715E-14

      iter #  11 total cpu time :159414.7 secs   av.it.:   9.8
      thresh= 2.591E-08 alpha_mix =  0.300 |ddv_scf|^2 =  1.593E-14

      iter #  12 total cpu time :160091.2 secs   av.it.:  10.6
      thresh= 1.262E-08 alpha_mix =  0.300 |ddv_scf|^2 =  6.851E-15

     End of self-consistent calculation

     Convergence has been achieved 


     Representation #   2 modes #   2   3

     Self-consistent Calculation

      iter #   1 total cpu time :161209.8 secs   av.it.:   7.7
      thresh= 1.000E-02 alpha_mix =  0.300 |ddv_scf|^2 =  5.649E-06

      iter #   2 total cpu time :162628.6 secs   av.it.:  11.3
      thresh= 2.377E-04 alpha_mix =  0.300 |ddv_scf|^2 =  9.651E-07

      iter #   3 total cpu time :164073.1 secs   av.it.:  11.9
      thresh= 9.824E-05 alpha_mix =  0.300 |ddv_scf|^2 =  1.024E-08

      iter #   4 total cpu time :165717.9 secs   av.it.:  12.6
      thresh= 1.012E-05 alpha_mix =  0.300 |ddv_scf|^2 =  2.941E-10

      iter #   5 total cpu time :167218.5 secs   av.it.:  12.0
      thresh= 1.715E-06 alpha_mix =  0.300 |ddv_scf|^2 =  6.023E-11

      iter #   6 total cpu time :168809.3 secs   av.it.:  12.7
      thresh= 7.761E-07 alpha_mix =  0.300 |ddv_scf|^2 =  1.204E-12

      iter #   7 total cpu time :170364.5 secs   av.it.:  12.9
      thresh= 1.097E-07 alpha_mix =  0.300 |ddv_scf|^2 =  1.123E-14

      iter #   8 total cpu time :171851.6 secs   av.it.:  11.9
      thresh= 1.059E-08 alpha_mix =  0.300 |ddv_scf|^2 =  4.118E-15

     End of self-consistent calculation

     Convergence has been achieved 

     Number of q in the star =    6
     List of q in the star:
          1   0.000000000   0.000000000   0.500000000
          2   0.500000000   0.000000000   0.000000000
          3  -0.500000000   0.000000000   0.000000000
          4   0.000000000  -0.500000000   0.000000000
          5   0.000000000   0.000000000  -0.500000000
          6   0.000000000   0.500000000   0.000000000

     Diagonalizing the dynamical matrix

     q = (    0.000000000   0.000000000   0.500000000 ) 

 **************************************************************************
     freq (    1) =       3.258385 [THz] =     108.688030 [cm-1]
     freq (    2) =       3.258385 [THz] =     108.688030 [cm-1]
     freq (    3) =       5.808384 [THz] =     193.746838 [cm-1]
 **************************************************************************

     Mode symmetry, C_4v (4mm)  point group:

     freq (   1-   2) =        108.7  [cm-1]   --> E    G_5 D_5       
     freq (   3-   3) =        193.7  [cm-1]   --> A_1  G_1 D_1       

     Calculation of q =    0.0000000   0.7500000  -0.2500000

     G-vector sticks info
     --------------------
     sticks:   dense  smooth     PW     G-vecs:    dense   smooth      PW
     Sum        1243     619    221                27475     9693    2123

     Using Slab Decomposition


     Title: 
     Phonon dispersion for Nb BCC - Publication 4x4x4                           


     bravais-lattice index     =            3
     lattice parameter (alat)  =       6.2521  a.u.
     unit-cell volume          =     122.1934 (a.u.)^3
     number of atoms/cell      =            1
     number of atomic types    =            1
     number of electrons       =        13.00
     number of Kohn-Sham states=           11
     kinetic-energy cutoff     =      70.0000  Ry
     charge density cutoff     =     560.0000  Ry
     Exchange-correlation= PBE
                           (   1   4   3   4   0   0   0)

     celldm(1)=   6.252100  celldm(2)=   0.000000  celldm(3)=   0.000000
     celldm(4)=   0.000000  celldm(5)=   0.000000  celldm(6)=   0.000000

     crystal axes: (cart. coord. in units of alat)
               a(1) = (   0.500000   0.500000   0.500000 )  
               a(2) = (  -0.500000   0.500000   0.500000 )  
               a(3) = (  -0.500000  -0.500000   0.500000 )  

     reciprocal axes: (cart. coord. in units 2 pi/alat)
               b(1) = (  1.000000  0.000000  1.000000 )  
               b(2) = ( -1.000000  1.000000  0.000000 )  
               b(3) = (  0.000000 -1.000000  1.000000 )  


     PseudoPot. # 1 for Nb read from file:
     ./pseudo/nb_pbe_v1.uspp.F.UPF
     MD5 check sum: 573aab8a2fa660278ed4a62cd769473f
     Pseudo is Ultrasoft + core correction, Zval = 13.0
     Generated by new atomic code, or converted to UPF format
     Using radial grid of  887 points,  6 beta functions with: 
                l(1) =   0
                l(2) =   0
                l(3) =   1
                l(4) =   1
                l(5) =   2
                l(6) =   2
     Q(r) pseudized with  6 coefficients,  rinner =    1.000   1.000   1.000
                                                       1.000   1.000

     atomic species   valence    mass     pseudopotential
        Nb            13.00    92.90600     Nb( 1.00)

     48 Sym. Ops., with inversion, found



   Cartesian axes

     site n.     atom                  positions (alat units)
         1           Nb  tau(   1) = (   0.0000000   0.0000000   0.0000000  )

     number of k points=  1020  Marzari-Vanderbilt smearing, width (Ry)=  0.0300

     Number of k-points >= 100: set verbosity='high' to print them.

     Dense  grid:    27475 G-vectors     FFT dimensions: (  45,  45,  45)

     Smooth grid:     9693 G-vectors     FFT dimensions: (  30,  30,  30)

     Estimated max dynamical RAM per process >      90.62 MB

     The potential is recalculated from file :
     ./tmp/_ph0/Nb.save/charge-density

     Starting wfcs are   13 atomic wfcs

     Band Structure Calculation
     Davidson diagonalization with overlap

     ethr =  7.69E-11,  avg # of iterations = 13.8

     total cpu time spent up to now is    14874.8 secs

     End of band structure calculation

     Number of k-points >= 100: set verbosity='high' to print the bands.

     the Fermi energy is    17.8709 ev

     Writing config to output data dir ./tmp/_ph0/Nb.save/

     Phonon dispersion for Nb BCC - Publication 4x4x4                           

     bravais-lattice index     =            3
     lattice parameter (alat)  =       6.2521  a.u.
     unit-cell volume          =     122.1934 (a.u.)^3
     number of atoms/cell      =            1
     number of atomic types    =            1
     kinetic-energy cut-off    =      70.0000  Ry
     charge density cut-off    =     560.0000  Ry
     convergence threshold     =      1.0E-14
     beta                      =       0.3000
     number of iterations used =            4
     Exchange-correlation= PBE
                           (   1   4   3   4   0   0   0)


     celldm(1)=    6.25210  celldm(2)=    0.00000  celldm(3)=    0.00000
     celldm(4)=    0.00000  celldm(5)=    0.00000  celldm(6)=    0.00000

     crystal axes: (cart. coord. in units of alat)
               a(1) = (  0.5000  0.5000  0.5000 )  
               a(2) = ( -0.5000  0.5000  0.5000 )  
               a(3) = ( -0.5000 -0.5000  0.5000 )  

     reciprocal axes: (cart. coord. in units 2 pi/alat)
               b(1) = (  1.0000  0.0000  1.0000 )  
               b(2) = ( -1.0000  1.0000  0.0000 )  
               b(3) = (  0.0000 -1.0000  1.0000 )  


     Atoms inside the unit cell: 

     Cartesian axes

     site n.  atom      mass           positions (alat units)
        1     Nb  92.9060   tau(    1) = (    0.00000    0.00000    0.00000  )

     Computing dynamical matrix for 
                    q = (   0.0000000   0.7500000  -0.2500000 )

      4 Sym.Ops. (no q -> -q+G )


     G cutoff =  554.4726  (  27475 G-vectors)     FFT grid: ( 45, 45, 45)
     G cutoff =  277.2363  (   9693 G-vectors)  smooth grid: ( 30, 30, 30)

     number of k points=  1020  Marzari-Vanderbilt smearing, width (Ry)=  0.0300

     PseudoPot. # 1 for Nb read from file:
     ./pseudo/nb_pbe_v1.uspp.F.UPF
     MD5 check sum: 573aab8a2fa660278ed4a62cd769473f
     Pseudo is Ultrasoft + core correction, Zval = 13.0
     Generated by new atomic code, or converted to UPF format
     Using radial grid of  887 points,  6 beta functions with: 
                l(1) =   0
                l(2) =   0
                l(3) =   1
                l(4) =   1
                l(5) =   2
                l(6) =   2
     Q(r) pseudized with  6 coefficients,  rinner =    1.000   1.000   1.000
                                                       1.000   1.000

     Mode symmetry, C_2v (mm2)  point group:


     Atomic displacements:
     There are    3 irreducible representations

     Representation     1      1 modes -  To be done

     Representation     2      1 modes -  To be done

     Representation     3      1 modes -  To be done



     Alpha used in Ewald sum =   2.8000
     PHONON       :   7d 7h58m CPU   2d 0h39m WALL



     Representation #   1 mode #   1

     Self-consistent Calculation

      iter #   1 total cpu time :176289.7 secs   av.it.:   8.1
      thresh= 1.000E-02 alpha_mix =  0.300 |ddv_scf|^2 =  1.780E-04

      iter #   2 total cpu time :177614.0 secs   av.it.:  10.7
      thresh= 1.334E-03 alpha_mix =  0.300 |ddv_scf|^2 =  2.944E-04

      iter #   3 total cpu time :178832.3 secs   av.it.:   9.4
      thresh= 1.716E-03 alpha_mix =  0.300 |ddv_scf|^2 =  6.448E-06

      iter #   4 total cpu time :180095.4 secs   av.it.:  10.4
      thresh= 2.539E-04 alpha_mix =  0.300 |ddv_scf|^2 =  8.137E-08

      iter #   5 total cpu time :181524.6 secs   av.it.:  11.5
      thresh= 2.853E-05 alpha_mix =  0.300 |ddv_scf|^2 =  4.000E-09

      iter #   6 total cpu time :182887.5 secs   av.it.:  11.2
      thresh= 6.325E-06 alpha_mix =  0.300 |ddv_scf|^2 =  8.001E-10

      iter #   7 total cpu time :184226.5 secs   av.it.:  11.8
      thresh= 2.829E-06 alpha_mix =  0.300 |ddv_scf|^2 =  1.767E-11

      iter #   8 total cpu time :185525.5 secs   av.it.:  11.7
      thresh= 4.204E-07 alpha_mix =  0.300 |ddv_scf|^2 =  3.668E-12

      iter #   9 total cpu time :186731.2 secs   av.it.:  10.8
      thresh= 1.915E-07 alpha_mix =  0.300 |ddv_scf|^2 =  8.658E-13

      iter #  10 total cpu time :187939.0 secs   av.it.:  10.8
      thresh= 9.305E-08 alpha_mix =  0.300 |ddv_scf|^2 =  1.148E-13

      iter #  11 total cpu time :189323.3 secs   av.it.:  11.9
      thresh= 3.388E-08 alpha_mix =  0.300 |ddv_scf|^2 =  8.496E-14

      iter #  12 total cpu time :190652.5 secs   av.it.:  11.0
      thresh= 2.915E-08 alpha_mix =  0.300 |ddv_scf|^2 =  3.505E-15

     End of self-consistent calculation

     Convergence has been achieved 


     Representation #   2 mode #   2

     Self-consistent Calculation

      iter #   1 total cpu time :191637.6 secs   av.it.:   7.7
      thresh= 1.000E-02 alpha_mix =  0.300 |ddv_scf|^2 =  3.445E-05

      iter #   2 total cpu time :192849.0 secs   av.it.:  10.1
      thresh= 5.869E-04 alpha_mix =  0.300 |ddv_scf|^2 =  4.645E-06

      iter #   3 total cpu time :194091.3 secs   av.it.:  10.8
      thresh= 2.155E-04 alpha_mix =  0.300 |ddv_scf|^2 =  4.440E-08

      iter #   4 total cpu time :195422.4 secs   av.it.:  11.4
      thresh= 2.107E-05 alpha_mix =  0.300 |ddv_scf|^2 =  1.748E-09

      iter #   5 total cpu time :196660.2 secs   av.it.:  10.7
      thresh= 4.180E-06 alpha_mix =  0.300 |ddv_scf|^2 =  3.426E-10

      iter #   6 total cpu time :197934.9 secs   av.it.:  11.5
      thresh= 1.851E-06 alpha_mix =  0.300 |ddv_scf|^2 =  2.767E-12

      iter #   7 total cpu time :199221.9 secs   av.it.:  11.7
      thresh= 1.663E-07 alpha_mix =  0.300 |ddv_scf|^2 =  6.465E-14

      iter #   8 total cpu time :200420.2 secs   av.it.:  11.1
      thresh= 2.543E-08 alpha_mix =  0.300 |ddv_scf|^2 =  1.643E-14

      iter #   9 total cpu time :201666.2 secs   av.it.:  11.6
      thresh= 1.282E-08 alpha_mix =  0.300 |ddv_scf|^2 =  2.117E-16

     End of self-consistent calculation

     Convergence has been achieved 


     Representation #   3 mode #   3

     Self-consistent Calculation

      iter #   1 total cpu time :202751.6 secs   av.it.:   8.3
      thresh= 1.000E-02 alpha_mix =  0.300 |ddv_scf|^2 =  2.382E-04

      iter #   2 total cpu time :203961.0 secs   av.it.:  10.0
      thresh= 1.543E-03 alpha_mix =  0.300 |ddv_scf|^2 =  6.745E-07

      iter #   3 total cpu time :205246.4 secs   av.it.:  10.7
      thresh= 8.213E-05 alpha_mix =  0.300 |ddv_scf|^2 =  1.737E-07

      iter #   4 total cpu time :206566.6 secs   av.it.:  11.3
      thresh= 4.168E-05 alpha_mix =  0.300 |ddv_scf|^2 =  4.397E-09

      iter #   5 total cpu time :207929.8 secs   av.it.:  11.5
      thresh= 6.631E-06 alpha_mix =  0.300 |ddv_scf|^2 =  2.625E-11

      iter #   6 total cpu time :209250.6 secs   av.it.:  10.9
      thresh= 5.123E-07 alpha_mix =  0.300 |ddv_scf|^2 =  6.918E-12

      iter #   7 total cpu time :210639.3 secs   av.it.:  11.8
      thresh= 2.630E-07 alpha_mix =  0.300 |ddv_scf|^2 =  1.746E-13

      iter #   8 total cpu time :211953.9 secs   av.it.:  10.9
      thresh= 4.178E-08 alpha_mix =  0.300 |ddv_scf|^2 =  4.833E-14

      iter #   9 total cpu time :213286.0 secs   av.it.:  11.5
      thresh= 2.198E-08 alpha_mix =  0.300 |ddv_scf|^2 =  6.018E-16

     End of self-consistent calculation

     Convergence has been achieved 

     Number of q in the star =   12
     List of q in the star:
          1   0.000000000   0.750000000  -0.250000000
          2  -0.750000000   0.000000000  -0.250000000
          3   0.000000000  -0.750000000  -0.250000000
          4   0.750000000   0.000000000  -0.250000000
          5  -0.250000000   0.000000000  -0.750000000
          6   0.250000000   0.000000000  -0.750000000
          7   0.000000000   0.250000000  -0.750000000
          8   0.000000000   0.750000000   0.250000000
          9   0.250000000   0.750000000   0.000000000
         10  -0.250000000   0.750000000   0.000000000
         11   0.250000000  -0.750000000   0.000000000
         12  -0.250000000  -0.750000000   0.000000000

     Diagonalizing the dynamical matrix

     q = (    0.000000000   0.750000000  -0.250000000 ) 

 **************************************************************************
     freq (    1) =       4.008298 [THz] =     133.702445 [cm-1]
     freq (    2) =       5.489777 [THz] =     183.119234 [cm-1]
     freq (    3) =       5.666367 [THz] =     189.009648 [cm-1]
 **************************************************************************

     Mode symmetry, C_2v (mm2)  point group:

     freq (   1-   1) =        133.7  [cm-1]   --> A_1  D_1  S_1      
     freq (   2-   2) =        183.1  [cm-1]   --> B_2  D_4  S_4      
     freq (   3-   3) =        189.0  [cm-1]   --> B_1  D_3  S_3      

     Calculation of q =    0.5000000  -0.5000000   0.5000000

     G-vector sticks info
     --------------------
     sticks:   dense  smooth     PW     G-vecs:    dense   smooth      PW
     Sum        1243     619    229                27475     9693    2171

     Using Slab Decomposition


     Title: 
     Phonon dispersion for Nb BCC - Publication 4x4x4                           


     bravais-lattice index     =            3
     lattice parameter (alat)  =       6.2521  a.u.
     unit-cell volume          =     122.1934 (a.u.)^3
     number of atoms/cell      =            1
     number of atomic types    =            1
     number of electrons       =        13.00
     number of Kohn-Sham states=           11
     kinetic-energy cutoff     =      70.0000  Ry
     charge density cutoff     =     560.0000  Ry
     Exchange-correlation= PBE
                           (   1   4   3   4   0   0   0)

     celldm(1)=   6.252100  celldm(2)=   0.000000  celldm(3)=   0.000000
     celldm(4)=   0.000000  celldm(5)=   0.000000  celldm(6)=   0.000000

     crystal axes: (cart. coord. in units of alat)
               a(1) = (   0.500000   0.500000   0.500000 )  
               a(2) = (  -0.500000   0.500000   0.500000 )  
               a(3) = (  -0.500000  -0.500000   0.500000 )  

     reciprocal axes: (cart. coord. in units 2 pi/alat)
               b(1) = (  1.000000  0.000000  1.000000 )  
               b(2) = ( -1.000000  1.000000  0.000000 )  
               b(3) = (  0.000000 -1.000000  1.000000 )  


     PseudoPot. # 1 for Nb read from file:
     ./pseudo/nb_pbe_v1.uspp.F.UPF
     MD5 check sum: 573aab8a2fa660278ed4a62cd769473f
     Pseudo is Ultrasoft + core correction, Zval = 13.0
     Generated by new atomic code, or converted to UPF format
     Using radial grid of  887 points,  6 beta functions with: 
                l(1) =   0
                l(2) =   0
                l(3) =   1
                l(4) =   1
                l(5) =   2
                l(6) =   2
     Q(r) pseudized with  6 coefficients,  rinner =    1.000   1.000   1.000
                                                       1.000   1.000

     atomic species   valence    mass     pseudopotential
        Nb            13.00    92.90600     Nb( 1.00)

     48 Sym. Ops., with inversion, found



   Cartesian axes

     site n.     atom                  positions (alat units)
         1           Nb  tau(   1) = (   0.0000000   0.0000000   0.0000000  )

     number of k points=   232  Marzari-Vanderbilt smearing, width (Ry)=  0.0300

     Number of k-points >= 100: set verbosity='high' to print them.

     Dense  grid:    27475 G-vectors     FFT dimensions: (  45,  45,  45)

     Smooth grid:     9693 G-vectors     FFT dimensions: (  30,  30,  30)

     Estimated max dynamical RAM per process >      90.63 MB

     The potential is recalculated from file :
     ./tmp/_ph0/Nb.save/charge-density

     Starting wfcs are   13 atomic wfcs

     Band Structure Calculation
     Davidson diagonalization with overlap

     ethr =  7.69E-11,  avg # of iterations = 13.1

     total cpu time spent up to now is    15587.0 secs

     End of band structure calculation

     Number of k-points >= 100: set verbosity='high' to print the bands.

     the Fermi energy is    17.8709 ev

     Writing config to output data dir ./tmp/_ph0/Nb.save/

     Phonon dispersion for Nb BCC - Publication 4x4x4                           

     bravais-lattice index     =            3
     lattice parameter (alat)  =       6.2521  a.u.
     unit-cell volume          =     122.1934 (a.u.)^3
     number of atoms/cell      =            1
     number of atomic types    =            1
     kinetic-energy cut-off    =      70.0000  Ry
     charge density cut-off    =     560.0000  Ry
     convergence threshold     =      1.0E-14
     beta                      =       0.3000
     number of iterations used =            4
     Exchange-correlation= PBE
                           (   1   4   3   4   0   0   0)


     celldm(1)=    6.25210  celldm(2)=    0.00000  celldm(3)=    0.00000
     celldm(4)=    0.00000  celldm(5)=    0.00000  celldm(6)=    0.00000

     crystal axes: (cart. coord. in units of alat)
               a(1) = (  0.5000  0.5000  0.5000 )  
               a(2) = ( -0.5000  0.5000  0.5000 )  
               a(3) = ( -0.5000 -0.5000  0.5000 )  

     reciprocal axes: (cart. coord. in units 2 pi/alat)
               b(1) = (  1.0000  0.0000  1.0000 )  
               b(2) = ( -1.0000  1.0000  0.0000 )  
               b(3) = (  0.0000 -1.0000  1.0000 )  


     Atoms inside the unit cell: 

     Cartesian axes

     site n.  atom      mass           positions (alat units)
        1     Nb  92.9060   tau(    1) = (    0.00000    0.00000    0.00000  )

     Computing dynamical matrix for 
                    q = (   0.5000000  -0.5000000   0.5000000 )

     24 Sym.Ops. (no q -> -q+G )


     G cutoff =  554.4726  (  27475 G-vectors)     FFT grid: ( 45, 45, 45)
     G cutoff =  277.2363  (   9693 G-vectors)  smooth grid: ( 30, 30, 30)

     number of k points=   232  Marzari-Vanderbilt smearing, width (Ry)=  0.0300

     PseudoPot. # 1 for Nb read from file:
     ./pseudo/nb_pbe_v1.uspp.F.UPF
     MD5 check sum: 573aab8a2fa660278ed4a62cd769473f
     Pseudo is Ultrasoft + core correction, Zval = 13.0
     Generated by new atomic code, or converted to UPF format
     Using radial grid of  887 points,  6 beta functions with: 
                l(1) =   0
                l(2) =   0
                l(3) =   1
                l(4) =   1
                l(5) =   2
                l(6) =   2
     Q(r) pseudized with  6 coefficients,  rinner =    1.000   1.000   1.000
                                                       1.000   1.000

     Mode symmetry, T_d (-43m)  point group:


     Atomic displacements:
     There are    1 irreducible representations

     Representation     1      3 modes -  To be done



     Alpha used in Ewald sum =   2.8000
     PHONON       :   8d23h23m CPU   2d11h27m WALL



     Representation #   1 modes #   1   2   3

     Self-consistent Calculation

      iter #   1 total cpu time :214818.3 secs   av.it.:   8.1
      thresh= 1.000E-02 alpha_mix =  0.300 |ddv_scf|^2 =  1.113E-05

      iter #   2 total cpu time :215797.0 secs   av.it.:  11.6
      thresh= 3.336E-04 alpha_mix =  0.300 |ddv_scf|^2 =  3.579E-07

      iter #   3 total cpu time :216788.9 secs   av.it.:  11.9
      thresh= 5.983E-05 alpha_mix =  0.300 |ddv_scf|^2 =  1.401E-08

      iter #   4 total cpu time :217828.4 secs   av.it.:  13.1
      thresh= 1.184E-05 alpha_mix =  0.300 |ddv_scf|^2 =  2.997E-10

      iter #   5 total cpu time :218875.4 secs   av.it.:  12.6
      thresh= 1.731E-06 alpha_mix =  0.300 |ddv_scf|^2 =  3.988E-11

      iter #   6 total cpu time :219963.9 secs   av.it.:  13.1
      thresh= 6.315E-07 alpha_mix =  0.300 |ddv_scf|^2 =  2.988E-13

      iter #   7 total cpu time :221040.6 secs   av.it.:  13.2
      thresh= 5.467E-08 alpha_mix =  0.300 |ddv_scf|^2 =  5.747E-15

     End of self-consistent calculation

     Convergence has been achieved 

     Number of q in the star =    2
     List of q in the star:
          1   0.500000000  -0.500000000   0.500000000
          2   0.500000000  -0.500000000  -0.500000000

     Diagonalizing the dynamical matrix

     q = (    0.500000000  -0.500000000   0.500000000 ) 

 **************************************************************************
     freq (    1) =       4.833606 [THz] =     161.231754 [cm-1]
     freq (    2) =       4.833606 [THz] =     161.231754 [cm-1]
     freq (    3) =       4.833606 [THz] =     161.231754 [cm-1]
 **************************************************************************

     Mode symmetry, T_d (-43m)  point group:

     freq (   1-   3) =        161.2  [cm-1]   --> T_2  G_15 P_4      

     Calculation of q =    0.0000000   0.0000000  -1.0000000

     G-vector sticks info
     --------------------
     sticks:   dense  smooth     PW     G-vecs:    dense   smooth      PW
     Sum        1243     619    233                27475     9693    2315

     Using Slab Decomposition


     Title: 
     Phonon dispersion for Nb BCC - Publication 4x4x4                           


     bravais-lattice index     =            3
     lattice parameter (alat)  =       6.2521  a.u.
     unit-cell volume          =     122.1934 (a.u.)^3
     number of atoms/cell      =            1
     number of atomic types    =            1
     number of electrons       =        13.00
     number of Kohn-Sham states=           11
     kinetic-energy cutoff     =      70.0000  Ry
     charge density cutoff     =     560.0000  Ry
     Exchange-correlation= PBE
                           (   1   4   3   4   0   0   0)

     celldm(1)=   6.252100  celldm(2)=   0.000000  celldm(3)=   0.000000
     celldm(4)=   0.000000  celldm(5)=   0.000000  celldm(6)=   0.000000

     crystal axes: (cart. coord. in units of alat)
               a(1) = (   0.500000   0.500000   0.500000 )  
               a(2) = (  -0.500000   0.500000   0.500000 )  
               a(3) = (  -0.500000  -0.500000   0.500000 )  

     reciprocal axes: (cart. coord. in units 2 pi/alat)
               b(1) = (  1.000000  0.000000  1.000000 )  
               b(2) = ( -1.000000  1.000000  0.000000 )  
               b(3) = (  0.000000 -1.000000  1.000000 )  


     PseudoPot. # 1 for Nb read from file:
     ./pseudo/nb_pbe_v1.uspp.F.UPF
     MD5 check sum: 573aab8a2fa660278ed4a62cd769473f
     Pseudo is Ultrasoft + core correction, Zval = 13.0
     Generated by new atomic code, or converted to UPF format
     Using radial grid of  887 points,  6 beta functions with: 
                l(1) =   0
                l(2) =   0
                l(3) =   1
                l(4) =   1
                l(5) =   2
                l(6) =   2
     Q(r) pseudized with  6 coefficients,  rinner =    1.000   1.000   1.000
                                                       1.000   1.000

     atomic species   valence    mass     pseudopotential
        Nb            13.00    92.90600     Nb( 1.00)

     48 Sym. Ops., with inversion, found



   Cartesian axes

     site n.     atom                  positions (alat units)
         1           Nb  tau(   1) = (   0.0000000   0.0000000   0.0000000  )

     number of k points=   144  Marzari-Vanderbilt smearing, width (Ry)=  0.0300

     Number of k-points >= 100: set verbosity='high' to print them.

     Dense  grid:    27475 G-vectors     FFT dimensions: (  45,  45,  45)

     Smooth grid:     9693 G-vectors     FFT dimensions: (  30,  30,  30)

     Estimated max dynamical RAM per process >      90.64 MB

     The potential is recalculated from file :
     ./tmp/_ph0/Nb.save/charge-density

     Starting wfcs are   13 atomic wfcs

     Band Structure Calculation
     Davidson diagonalization with overlap

     ethr =  7.69E-11,  avg # of iterations = 13.0

     total cpu time spent up to now is    16007.4 secs

     End of band structure calculation

     Number of k-points >= 100: set verbosity='high' to print the bands.

     the Fermi energy is    17.8709 ev

     Writing config to output data dir ./tmp/_ph0/Nb.save/

     Phonon dispersion for Nb BCC - Publication 4x4x4                           

     bravais-lattice index     =            3
     lattice parameter (alat)  =       6.2521  a.u.
     unit-cell volume          =     122.1934 (a.u.)^3
     number of atoms/cell      =            1
     number of atomic types    =            1
     kinetic-energy cut-off    =      70.0000  Ry
     charge density cut-off    =     560.0000  Ry
     convergence threshold     =      1.0E-14
     beta                      =       0.3000
     number of iterations used =            4
     Exchange-correlation= PBE
                           (   1   4   3   4   0   0   0)


     celldm(1)=    6.25210  celldm(2)=    0.00000  celldm(3)=    0.00000
     celldm(4)=    0.00000  celldm(5)=    0.00000  celldm(6)=    0.00000

     crystal axes: (cart. coord. in units of alat)
               a(1) = (  0.5000  0.5000  0.5000 )  
               a(2) = ( -0.5000  0.5000  0.5000 )  
               a(3) = ( -0.5000 -0.5000  0.5000 )  

     reciprocal axes: (cart. coord. in units 2 pi/alat)
               b(1) = (  1.0000  0.0000  1.0000 )  
               b(2) = ( -1.0000  1.0000  0.0000 )  
               b(3) = (  0.0000 -1.0000  1.0000 )  


     Atoms inside the unit cell: 

     Cartesian axes

     site n.  atom      mass           positions (alat units)
        1     Nb  92.9060   tau(    1) = (    0.00000    0.00000    0.00000  )

     Computing dynamical matrix for 
                    q = (   0.0000000   0.0000000  -1.0000000 )

     49 Sym.Ops. (with q -> -q+G )


     G cutoff =  554.4726  (  27475 G-vectors)     FFT grid: ( 45, 45, 45)
     G cutoff =  277.2363  (   9693 G-vectors)  smooth grid: ( 30, 30, 30)

     number of k points=   144  Marzari-Vanderbilt smearing, width (Ry)=  0.0300

     PseudoPot. # 1 for Nb read from file:
     ./pseudo/nb_pbe_v1.uspp.F.UPF
     MD5 check sum: 573aab8a2fa660278ed4a62cd769473f
     Pseudo is Ultrasoft + core correction, Zval = 13.0
     Generated by new atomic code, or converted to UPF format
     Using radial grid of  887 points,  6 beta functions with: 
                l(1) =   0
                l(2) =   0
                l(3) =   1
                l(4) =   1
                l(5) =   2
                l(6) =   2
     Q(r) pseudized with  6 coefficients,  rinner =    1.000   1.000   1.000
                                                       1.000   1.000

     Mode symmetry, O_h (m-3m)  point group:


     Atomic displacements:
     There are    1 irreducible representations

     Representation     1      3 modes -  To be done



     Alpha used in Ewald sum =   2.8000
     PHONON       :   9d 6h38m CPU   2d13h31m WALL



     Representation #   1 modes #   1   2   3

     Self-consistent Calculation

      iter #   1 total cpu time :221903.5 secs   av.it.:   7.7
      thresh= 1.000E-02 alpha_mix =  0.300 |ddv_scf|^2 =  6.151E-06

      iter #   2 total cpu time :222429.4 secs   av.it.:  11.0
      thresh= 2.480E-04 alpha_mix =  0.300 |ddv_scf|^2 =  6.285E-07

      iter #   3 total cpu time :222975.7 secs   av.it.:  11.7
      thresh= 7.928E-05 alpha_mix =  0.300 |ddv_scf|^2 =  3.037E-09

      iter #   4 total cpu time :223562.8 secs   av.it.:  12.0
      thresh= 5.511E-06 alpha_mix =  0.300 |ddv_scf|^2 =  5.897E-11

      iter #   5 total cpu time :224185.4 secs   av.it.:  11.7
      thresh= 7.679E-07 alpha_mix =  0.300 |ddv_scf|^2 =  7.816E-12

      iter #   6 total cpu time :224842.3 secs   av.it.:  12.6
      thresh= 2.796E-07 alpha_mix =  0.300 |ddv_scf|^2 =  8.881E-14

      iter #   7 total cpu time :225459.9 secs   av.it.:  11.7
      thresh= 2.980E-08 alpha_mix =  0.300 |ddv_scf|^2 =  1.017E-14

      iter #   8 total cpu time :226099.9 secs   av.it.:  12.1
      thresh= 1.009E-08 alpha_mix =  0.300 |ddv_scf|^2 =  1.701E-16

     End of self-consistent calculation

     Convergence has been achieved 

     Number of q in the star =    1
     List of q in the star:
          1   0.000000000   0.000000000  -1.000000000

     Diagonalizing the dynamical matrix

     q = (    0.000000000   0.000000000  -1.000000000 ) 

 **************************************************************************
     freq (    1) =       6.404089 [THz] =     213.617400 [cm-1]
     freq (    2) =       6.404089 [THz] =     213.617400 [cm-1]
     freq (    3) =       6.404089 [THz] =     213.617400 [cm-1]
 **************************************************************************

     Mode symmetry, O_h (m-3m)  point group:

     freq (   1-   3) =        213.6  [cm-1]   --> T_1u G_15  G_4-    

     init_run     :      8.19s CPU      2.09s WALL (       7 calls)
     electrons    :  54479.70s CPU  16005.09s WALL (       7 calls)

     Called by init_run:
     wfcinit      :      0.00s CPU      0.00s WALL (       7 calls)
     potinit      :      0.43s CPU      0.12s WALL (       7 calls)
     hinit0       :      4.87s CPU      1.22s WALL (       7 calls)

     Called by electrons:
     c_bands      :  54479.36s CPU  16005.01s WALL (       7 calls)
     v_of_rho     :      0.38s CPU      0.11s WALL (       8 calls)
     newd         :      0.41s CPU      0.21s WALL (       8 calls)

     Called by c_bands:
     init_us_2    :    147.84s CPU     33.53s WALL (  110508 calls)
     init_us_2:cp :    146.78s CPU     33.34s WALL (  110508 calls)
     cegterg      :  49216.98s CPU  14261.31s WALL (    5471 calls)

     Called by *egterg:
     cdiaghg      :     95.10s CPU     23.80s WALL (   79919 calls)
     h_psi        : 693993.12s CPU 191837.20s WALL ( 1502416 calls)
     s_psi        :    617.80s CPU    206.38s WALL ( 3004234 calls)
     g_psi        :     32.65s CPU      6.60s WALL (   74483 calls)

     Called by h_psi:
     h_psi:calbec :    636.72s CPU    236.99s WALL ( 1502416 calls)
     vloc_psi     : 692423.96s CPU 191390.65s WALL ( 1502416 calls)
     add_vuspsi   :    321.69s CPU     92.84s WALL ( 1502416 calls)

     General routines
     calbec       :   1267.06s CPU    417.93s WALL ( 3169720 calls)
     fft          :     18.46s CPU      3.64s WALL (    3981 calls)
     ffts         :     21.82s CPU      4.00s WALL (    9409 calls)
     fftw         : 802109.54s CPU 221979.11s WALL (16965850 calls)
     interpolate  :      3.40s CPU      0.72s WALL (     464 calls)
     davcio       :    146.20s CPU     38.78s WALL (  451731 calls)


     PHONON       :   9d11h10m CPU   2d14h48m WALL

     INITIALIZATION: 
     phq_setup    :      1.59s CPU      0.30s WALL (       8 calls)
     phq_init     :   4292.35s CPU   1187.27s WALL (       8 calls)

     phq_init     :   4292.35s CPU   1187.27s WALL (       8 calls)
     set_drhoc    :     10.68s CPU      2.54s WALL (      24 calls)
     init_vloc    :      0.03s CPU      0.01s WALL (       8 calls)
     init_us_1    :      4.88s CPU      1.18s WALL (       8 calls)
     init_us_2    :    147.84s CPU     33.53s WALL (  110508 calls)
     newd         :      0.41s CPU      0.21s WALL (       8 calls)
     dvanqq       :     11.49s CPU      2.10s WALL (       8 calls)
     drho         :   4224.61s CPU   1174.02s WALL (       8 calls)
     drhous       :   4201.97s CPU   1169.53s WALL (       8 calls)
     nldyntot     :      1.73s CPU      0.36s WALL (       8 calls)

     DYNAMICAL MATRIX:
     dynmat0      :     33.05s CPU      6.44s WALL (       8 calls)
     dynmat_us    :     24.85s CPU      4.51s WALL (       8 calls)
     addusdynmat  :      0.00s CPU      0.00s WALL (       8 calls)
     d2ionq       :      0.11s CPU      0.02s WALL (       8 calls)
     dynmatcc     :      8.07s CPU      1.91s WALL (       8 calls)
     phqscf       : 759036.01s CPU 208904.64s WALL (       8 calls)
     dynmatrix    :      0.07s CPU      0.02s WALL (       8 calls)

     phqscf       : 759036.01s CPU 208904.64s WALL (       8 calls)
     solve_linter : 758987.82s CPU 208895.89s WALL (      17 calls)
     sth_kernel   : 750848.91s CPU 206517.66s WALL (     162 calls)
     h_prec       :     11.27s CPU      2.48s WALL (   78800 calls)
     apply_dpot_b :  50512.44s CPU  13992.15s WALL (   76422 calls)
     ortho        :    184.12s CPU     50.05s WALL (   84792 calls)
     cgsolve      : 643638.30s CPU 176857.29s WALL (   84792 calls)
     incdrhoscf   :  56182.92s CPU  15533.96s WALL (   84792 calls)
                                        0.00s GPU  (   84792 calls)
     addusddens   :     48.50s CPU      9.32s WALL (     179 calls)
     dv_of_drho   :     17.32s CPU      3.76s WALL (     212 calls)
     mix_pot      :      5.42s CPU      1.45s WALL (     162 calls)
     ef_shift     :      0.17s CPU      0.03s WALL (       6 calls)
     ef_shift_wfc :      0.04s CPU      0.01s WALL (       1 calls)
     localdos     :      1.47s CPU      0.28s WALL (       1 calls)
     drhodv       :     47.88s CPU      8.68s WALL (      17 calls)
     symdvscf     :     11.82s CPU      2.66s WALL (     162 calls)
     newdq        :     41.77s CPU     10.44s WALL (     162 calls)
     adddvscf     :     66.99s CPU     18.27s WALL (   76422 calls)
     drhodvus     :      0.11s CPU      0.04s WALL (      17 calls)

     dvqpsi_us    :   7996.45s CPU   2345.76s WALL (    8370 calls)
                                        0.00s GPU  (    8370 calls)
     dvqpsi_us_on :     17.69s CPU      6.51s WALL (    8370 calls)

     add_vuspsi   :    321.69s CPU     92.84s WALL ( 1502416 calls)
     addusdbec    :     74.63s CPU     24.46s WALL (   93162 calls)

     drhodvus     :      0.11s CPU      0.04s WALL (      17 calls)

      General routines
     calbec       :   1267.06s CPU    417.93s WALL ( 3169720 calls)
     fft          :     18.46s CPU      3.64s WALL (    3981 calls)
     ffts         :     21.82s CPU      4.00s WALL (    9409 calls)
     fftw         : 802109.54s CPU 221979.11s WALL (16965850 calls)
     davcio       :    146.20s CPU     38.78s WALL (  451731 calls)
     write_rec    :      1.57s CPU      0.46s WALL (     179 calls)

      Additional routines
     ch_psi       : 643245.36s CPU 176765.97s WALL ( 1417026 calls)
     last         :   2318.24s CPU    596.86s WALL ( 1417026 calls)
     Hesh         :     43.86s CPU     11.79s WALL ( 1417026 calls)
     ch_psi_all_k :   1901.38s CPU    481.51s WALL ( 1417026 calls)
                                        0.00s GPU  ( 1417026 calls)
     ch_psi_calbe :    468.36s CPU    135.54s WALL ( 1417026 calls)
                                        0.00s GPU  ( 1417026 calls)
     h_psi_bgrp   : 694003.42s CPU 191839.70s WALL ( 1502416 calls)
     h_psi        : 693993.12s CPU 191837.20s WALL ( 1502416 calls)
     h_psi:pot    : 693416.34s CPU 191728.69s WALL ( 1502416 calls)
     h_psi:calbec :    636.72s CPU    236.99s WALL ( 1502416 calls)
     s_psi_bgrp   :   1744.90s CPU    415.18s WALL ( 3004234 calls)
     s_psi        :    617.80s CPU    206.38s WALL ( 3004234 calls)


     PHONON       :   9d11h10m CPU   2d14h48m WALL


   This run was terminated on:   8:14:48  11Mar2026            

=------------------------------------------------------------------------------=
   JOB DONE.
=------------------------------------------------------------------------------=
Note: The following floating-point exceptions are signalling: IEEE_INVALID_FLAG IEEE_DIVIDE_BY_ZERO IEEE_UNDERFLOW_FLAG
