
     Program Q2R v.7.2 starts on 11Mar2026 at 12: 1:26 

     This program is part of the open-source Quantum ESPRESSO suite
     for quantum simulation of materials; please cite
         "P. Giannozzi et al., J. Phys.:Condens. Matter 21 395502 (2009);
         "P. Giannozzi et al., J. Phys.:Condens. Matter 29 465901 (2017);
         "P. Giannozzi et al., J. Chem. Phys. 152 154105 (2020);
          URL http://www.quantum-espresso.org", 
     in publications or presentations arising from this work. More details at
     http://www.quantum-espresso.org/quote

     Serial multi-threaded version, running on    6 processor cores
     0 MiB available memory on the printing compute node when the environment starts


  reading grid info from file results_4x4x4/phonon/Nb.dyn0    

  reading force constants from file results_4x4x4/phonon/Nb.dyn1
  Dielectric Tensor not found
  nqs=            1
 q=   0.00000000  0.00000000  0.00000000
  reading force constants from file results_4x4x4/phonon/Nb.dyn2
  nqs=           12
 q=   0.00000000 -0.25000000  0.25000000
 q=  -0.25000000  0.25000000  0.00000000
 q=   0.25000000  0.25000000  0.00000000
 q=  -0.25000000 -0.25000000  0.00000000
 q=   0.25000000 -0.25000000  0.00000000
 q=   0.25000000  0.00000000 -0.25000000
 q=   0.25000000  0.00000000  0.25000000
 q=  -0.25000000  0.00000000 -0.25000000
 q=  -0.25000000  0.00000000  0.25000000
 q=   0.00000000 -0.25000000 -0.25000000
 q=   0.00000000  0.25000000 -0.25000000
 q=   0.00000000  0.25000000  0.25000000
  reading force constants from file results_4x4x4/phonon/Nb.dyn3
  nqs=            6
 q=   0.00000000  0.50000000 -0.50000000
 q=  -0.50000000  0.00000000  0.50000000
 q=  -0.50000000  0.00000000 -0.50000000
 q=   0.00000000  0.50000000  0.50000000
 q=   0.50000000  0.50000000  0.00000000
 q=  -0.50000000  0.50000000  0.00000000
  reading force constants from file results_4x4x4/phonon/Nb.dyn4
  nqs=           24
 q=  -0.25000000  0.75000000 -0.50000000
 q=   0.25000000  0.75000000 -0.50000000
 q=   0.25000000  0.50000000 -0.75000000
 q=  -0.25000000 -0.75000000  0.50000000
 q=   0.25000000 -0.75000000  0.50000000
 q=  -0.25000000 -0.50000000  0.75000000
 q=   0.25000000 -0.50000000  0.75000000
 q=  -0.50000000 -0.25000000  0.75000000
 q=  -0.50000000  0.25000000 -0.75000000
 q=   0.50000000  0.25000000  0.75000000
 q=   0.50000000 -0.25000000 -0.75000000
 q=  -0.25000000  0.50000000 -0.75000000
 q=   0.25000000  0.75000000  0.50000000
 q=   0.25000000 -0.75000000 -0.50000000
 q=   0.25000000  0.50000000  0.75000000
 q=   0.25000000 -0.50000000 -0.75000000
 q=  -0.25000000  0.75000000  0.50000000
 q=  -0.25000000 -0.50000000 -0.75000000
 q=  -0.25000000  0.50000000  0.75000000
 q=  -0.25000000 -0.75000000 -0.50000000
 q=  -0.50000000 -0.75000000 -0.25000000
 q=   0.50000000 -0.75000000  0.25000000
 q=  -0.50000000  0.75000000  0.25000000
 q=   0.50000000  0.75000000 -0.25000000
  reading force constants from file results_4x4x4/phonon/Nb.dyn5
  nqs=            6
 q=   0.00000000  0.00000000  0.50000000
 q=   0.50000000  0.00000000  0.00000000
 q=  -0.50000000  0.00000000  0.00000000
 q=   0.00000000 -0.50000000  0.00000000
 q=   0.00000000  0.00000000 -0.50000000
 q=   0.00000000  0.50000000  0.00000000
  reading force constants from file results_4x4x4/phonon/Nb.dyn6
  nqs=           12
 q=   0.00000000  0.75000000 -0.25000000
 q=  -0.75000000  0.00000000 -0.25000000
 q=   0.00000000 -0.75000000 -0.25000000
 q=   0.75000000  0.00000000 -0.25000000
 q=  -0.25000000  0.00000000 -0.75000000
 q=   0.25000000  0.00000000 -0.75000000
 q=   0.00000000  0.25000000 -0.75000000
 q=   0.00000000  0.75000000  0.25000000
 q=   0.25000000  0.75000000  0.00000000
 q=  -0.25000000  0.75000000  0.00000000
 q=   0.25000000 -0.75000000  0.00000000
 q=  -0.25000000 -0.75000000  0.00000000
  reading force constants from file results_4x4x4/phonon/Nb.dyn7
  nqs=            2
 q=   0.50000000 -0.50000000  0.50000000
 q=   0.50000000 -0.50000000 -0.50000000
  reading force constants from file results_4x4x4/phonon/Nb.dyn8
  nqs=            1
 q=   0.00000000  0.00000000 -1.00000000

      q-space grid ok, #points =   64

      fft-check success (sum of imaginary terms < 10^-12)

     Q2R          :      0.03s CPU      0.01s WALL


   This run was terminated on:  12: 1:27  11Mar2026            

=------------------------------------------------------------------------------=
   JOB DONE.
=------------------------------------------------------------------------------=
