
     Program PWSCF v.7.2 starts on  6Mar2026 at 21:11:29 

     This program is part of the open-source Quantum ESPRESSO suite
     for quantum simulation of materials; please cite
         "P. Giannozzi et al., J. Phys.:Condens. Matter 21 395502 (2009);
         "P. Giannozzi et al., J. Phys.:Condens. Matter 29 465901 (2017);
         "P. Giannozzi et al., J. Chem. Phys. 152 154105 (2020);
          URL http://www.quantum-espresso.org", 
     in publications or presentations arising from this work. More details at
     http://www.quantum-espresso.org/quote

     Serial multi-threaded version, running on    1 processor cores
     0 MiB available memory on the printing compute node when the environment starts

     Reading input from tmp_scf.in

     Program PWSCF v.7.2 starts on  6Mar2026 at 21:11:29 

     This program is part of the open-source Quantum ESPRESSO suite
     for quantum simulation of materials; please cite
         "P. Giannozzi et al., J. Phys.:Condens. Matter 21 395502 (2009);
         "P. Giannozzi et al., J. Phys.:Condens. Matter 29 465901 (2017);
         "P. Giannozzi et al., J. Chem. Phys. 152 154105 (2020);
          URL http://www.quantum-espresso.org", 
     in publications or presentations arising from this work. More details at
     http://www.quantum-espresso.org/quote

     Serial multi-threaded version, running on    1 processor cores
     0 MiB available memory on the printing compute node when the environment starts

     Reading input from tmp_scf.in

     Current dimensions of program PWSCF are:
     Max number of different atomic species (ntypx) = 10
     Max number of k-points (npk) =  40000
     Max angular momentum in pseudopotentials (lmaxx) =  4

     Program PWSCF v.7.2 starts on  6Mar2026 at 21:11:29 

     This program is part of the open-source Quantum ESPRESSO suite
     for quantum simulation of materials; please cite
         "P. Giannozzi et al., J. Phys.:Condens. Matter 21 395502 (2009);
         "P. Giannozzi et al., J. Phys.:Condens. Matter 29 465901 (2017);
         "P. Giannozzi et al., J. Chem. Phys. 152 154105 (2020);
          URL http://www.quantum-espresso.org", 
     in publications or presentations arising from this work. More details at
     http://www.quantum-espresso.org/quote

     Serial multi-threaded version, running on    1 processor cores
     0 MiB available memory on the printing compute node when the environment starts

     Reading input from tmp_scf.in

     Current dimensions of program PWSCF are:
     Max number of different atomic species (ntypx) = 10
     Max number of k-points (npk) =  40000
     Max angular momentum in pseudopotentials (lmaxx) =  4

     Current dimensions of program PWSCF are:
     Max number of different atomic species (ntypx) = 10
     Max number of k-points (npk) =  40000
     Max angular momentum in pseudopotentials (lmaxx) =  4

     Program PWSCF v.7.2 starts on  6Mar2026 at 21:11:29 

     This program is part of the open-source Quantum ESPRESSO suite
     for quantum simulation of materials; please cite
         "P. Giannozzi et al., J. Phys.:Condens. Matter 21 395502 (2009);
         "P. Giannozzi et al., J. Phys.:Condens. Matter 29 465901 (2017);
         "P. Giannozzi et al., J. Chem. Phys. 152 154105 (2020);
          URL http://www.quantum-espresso.org", 
     in publications or presentations arising from this work. More details at
     http://www.quantum-espresso.org/quote

     Serial multi-threaded version, running on    1 processor cores
     0 MiB available memory on the printing compute node when the environment starts

     Reading input from tmp_scf.in

     Current dimensions of program PWSCF are:
     Max number of different atomic species (ntypx) = 10
     Max number of k-points (npk) =  40000
     Max angular momentum in pseudopotentials (lmaxx) =  4


     G-vector sticks info
     --------------------
     sticks:   dense  smooth     PW     G-vecs:    dense   smooth      PW
     Sum         619     619    197                 9597     9597    1721

     Using Slab Decomposition



     bravais-lattice index     =            3
     lattice parameter (alat)  =       6.2350  a.u.
     unit-cell volume          =     121.1935 (a.u.)^3
     number of atoms/cell      =            1
     number of atomic types    =            1
     number of electrons       =        13.00

     number of Kohn-Sham states=           11
     kinetic-energy cutoff     =      70.0000  Ry
     charge density cutoff     =     280.0000  Ry
     scf convergence threshold =      1.0E-10
     mixing beta               =       0.7000
     number of iterations used =            8  plain     mixing
     Exchange-correlation= SLA  PW   PBE  PBE
                           (   1   4   3   4   0   0   0)

     celldm(1)=   6.235000  celldm(2)=   0.000000  celldm(3)=   0.000000
     celldm(4)=   0.000000  celldm(5)=   0.000000  celldm(6)=   0.000000

     crystal axes: (cart. coord. in units of alat)
               a(1) = (   0.500000   0.500000   0.500000 )  
               a(2) = (  -0.500000   0.500000   0.500000 )  
               a(3) = (  -0.500000  -0.500000   0.500000 )  

     reciprocal axes: (cart. coord. in units 2 pi/alat)
               b(1) = (  1.000000  0.000000  1.000000 )  
               b(2) = ( -1.000000  1.000000  0.000000 )  
               b(3) = (  0.000000 -1.000000  1.000000 )  


     PseudoPot. # 1 for Nb read from file:
     ./pseudo/nb_pbe_v1.uspp.F.UPF
     MD5 check sum: 573aab8a2fa660278ed4a62cd769473f
     Pseudo is Ultrasoft + core correction, Zval = 13.0
     Generated by new atomic code, or converted to UPF format
     Using radial grid of  887 points,  6 beta functions with: 
                l(1) =   0
                l(2) =   0
                l(3) =   1
                l(4) =   1
                l(5) =   2
                l(6) =   2
     Q(r) pseudized with  6 coefficients,  rinner =    1.000   1.000   1.000
                                                       1.000   1.000

     atomic species   valence    mass     pseudopotential
        Nb            13.00    92.90600     Nb( 1.00)

     48 Sym. Ops., with inversion, found



   Cartesian axes

     site n.     atom                  positions (alat units)
         1           Nb  tau(   1) = (   0.0000000   0.0000000   0.0000000  )

     number of k points=    47  Marzari-Vanderbilt smearing, width (Ry)=  0.0200
                       cart. coord. in units 2pi/alat
        k(    1) = (   0.0000000   0.0000000   0.0000000), wk =   0.0020000
        k(    2) = (   0.0000000  -0.1000000   0.1000000), wk =   0.0240000
        k(    3) = (   0.0000000  -0.2000000   0.2000000), wk =   0.0240000
        k(    4) = (   0.0000000  -0.3000000   0.3000000), wk =   0.0240000
        k(    5) = (   0.0000000  -0.4000000   0.4000000), wk =   0.0240000
        k(    6) = (   0.0000000   0.5000000  -0.5000000), wk =   0.0120000
        k(    7) = (  -0.1000000  -0.1000000   0.2000000), wk =   0.0480000
        k(    8) = (  -0.1000000  -0.2000000   0.3000000), wk =   0.0960000
        k(    9) = (  -0.1000000  -0.3000000   0.4000000), wk =   0.0960000
        k(   10) = (  -0.1000000   0.6000000  -0.5000000), wk =   0.0960000
        k(   11) = (  -0.2000000  -0.2000000   0.4000000), wk =   0.0480000
        k(   12) = (  -0.2000000   0.7000000  -0.5000000), wk =   0.0960000
        k(   13) = (  -0.2000000   0.6000000  -0.4000000), wk =   0.0480000
        k(   14) = (  -0.3000000   0.7000000  -0.4000000), wk =   0.0480000
        k(   15) = (   0.0000000   0.0000000   0.2000000), wk =   0.0120000
        k(   16) = (   0.0000000  -0.1000000   0.3000000), wk =   0.0480000
        k(   17) = (   0.0000000  -0.2000000   0.4000000), wk =   0.0480000
        k(   18) = (   0.0000000  -0.3000000   0.5000000), wk =   0.0480000
        k(   19) = (   0.0000000   0.6000000  -0.4000000), wk =   0.0240000
        k(   20) = (  -0.1000000  -0.1000000   0.4000000), wk =   0.0480000
        k( 
     G-vector sticks info
     --------------------
     sticks:   dense  smooth     PW     G-vecs:    dense   smooth      PW
     Sum         619     619    197                 9597     9597    1721

     Using Slab Decomposition



     bravais-lattice index     =            3
     lattice parameter (alat)  =       6.2350  a.u.
     unit-cell volume          =     121.1935 (a.u.)^3
     number of atoms/cell      =            1
     number of atomic types    =            1
     number of electrons       =        13.00
     number of Kohn-Sham states=           11
     kinetic-energy cutoff     =      70.0000  Ry
     charge density cutoff     =     280.0000  Ry
     scf convergence threshold =      1.0E-10
     mixing beta               =       0.7000
     number of iterations used =            8  plain     mixing
     Exchange-correlation= SLA  PW   PBE  PBE
                           (   1   4   3   4   0   0   0)

     celldm(1)=   6.235000  celldm(2)=   0.000000  celldm(3)=   0.000000
     celldm(4)=     21) = (  -0.1000000  -0.2000000   0.5000000), wk =   0.0960000
        k(   22) = (  -0.1000000   0.7000000  -0.4000000), wk =   0.0960000
        k(   23) = (  -0.2000000   0.2000000   0.2000000), wk =   0.0160000
        k(   24) = (  -0.2000000   0.8000000  -0.4000000), wk =   0.0480000
        k(   25) = (  -0.2000000   0.7000000  -0.3000000), wk =   0.0480000
        k(   26) = (  -0.3000000   0.3000000   0.2000000), wk =   0.0480000
        k(   27) = (   0.6000000  -0.6000000   0.2000000), wk =   0.0480000
        k(   28) = (   0.6000000  -0.7000000   0.3000000), wk =   0.0480000
        k(   29) = (   0.5000000  -0.5000000   0.2000000), wk =   0.0240000
        k(   30) = (   0.5000000  -0.6000000   0.3000000), wk =   0.0960000
        k(   31) = (   0.4000000  -0.6000000   0.4000000), wk =   0.0160000
        k(   32) = (   0.0000000   0.0000000   0.4000000), wk =   0.0120000
        k(   33) = (   0.0000000  -0.1000000   0.5000000), wk =   0.0480000
        k(   34) = (   0.0000000  -0.2000000   0.000000  celldm(5)=   0.000000  celldm(6)=   0.000000

     crystal axes: (cart. coord. in units of alat)
               a(1) = (   0.500000   0.500000   0.500000 )  
               a(2) = (  -0.500000   0.500000   0.500000 )  
               a(3) = (  -0.500000  -0.500000   0.500000 )  

     reciprocal axes: (cart. coord. in units 2 pi/alat)
               b(1) = (  1.000000  0.000000  1.000000 )  
               b(2) = ( -1.000000  1.000000  0.000000 )  
               b(3) = (  0.000000 -1.000000  1.000000 )  


     PseudoPot. # 1 for Nb read from file:
     ./pseudo/nb_pbe_v1.uspp.F.UPF
     MD5 check sum: 573aab8a2fa660278ed4a62cd769473f
     Pseudo is Ultrasoft + core correction, Zval = 13.0
     Generated by new atomic code, or converted to UPF format
     Using radial grid of  887 points,  6 beta functions with: 
                l(1) =   0
                l(2) =   0
                l(3) =   1
                l(4) =   1
                l(5) =   2
                l(6) =   2
     Q(r) pseudized with  0.6000000), wk =   0.0480000
        k(   35) = (   0.0000000   0.7000000  -0.3000000), wk =   0.0240000
        k(   36) = (  -0.1000000  -0.1000000   0.6000000), wk =   0.0480000
        k(   37) = (  -0.1000000   0.8000000  -0.3000000), wk =   0.0960000
        k(   38) = (  -0.2000000   0.8000000  -0.2000000), wk =   0.0160000
        k(   39) = (   0.6000000  -0.6000000   0.4000000), wk =   0.0160000
        k(   40) = (   0.5000000  -0.5000000   0.4000000), wk =   0.0240000
        k(   41) = (   0.0000000   0.0000000   0.6000000), wk =   0.0120000
        k(   42) = (   0.0000000  -0.1000000   0.7000000), wk =   0.0480000
        k(   43) = (   0.0000000   0.8000000  -0.2000000), wk =   0.0240000
        k(   44) = (  -0.1000000   0.9000000  -0.2000000), wk =   0.0480000
        k(   45) = (   0.0000000   0.0000000   0.8000000), wk =   0.0120000
        k(   46) = (   0.0000000   0.9000000  -0.1000000), wk =   0.0240000
        k(   47) = (   0.0000000   0.0000000  -1.0000000), wk =   0.0020000

     Dense  grid:     9597 G-vectors     FFT dimensions: (  30,  30,  30)

     Estimated max dynamical RAM per process >      44.56 MB
6 coefficients,  rinner =    1.000   1.000   1.000
                                                       1.000   1.000

     atomic species   valence    mass     pseudopotential
        Nb            13.00    92.90600     Nb( 1.00)

     48 Sym. Ops., with inversion, found



   Cartesian axes

     site n.     atom                  positions (alat units)
         1           Nb  tau(   1) = (   0.0000000   0.0000000   0.0000000  )

     number of k points=    47  Marzari-Vanderbilt smearing, width (Ry)=  0.0200
                       cart. coord. in units 2pi/alat
        k(    1) = (   0.0000000   0.0000000   0.0000000), wk =   0.0020000
        k(    2) = (   0.0000000  -0.1000000   0.1000000), wk =   0.0240000
        k(    3) = (   0.0000000  -0.2000000   0.2000000), wk =   0.0240000
        k(    4) = (   0.0000000  -0.3000000   0.3000000), wk =   0.0240000
        k(    5) = (   0.0000000  -0.4000000   0.4000000), wk =   0.0240000
        k(    6) = (   0.0000000   0.5000000  -0.5000000), wk =   0.0120000
        k(    7) = (  -0.1000000  -0.1000000   0.2000000), wk =   0.0480000
        k(    8) = (  -0.1000000  -0.2000000   0.3000000), wk =   0.0960000
        k(    9) = (  -0.1000000  -0.3000000   0.4000000), wk =   0.0960000
        k(   10) = (  -0.1000000   0.6000000  -0.5000000), wk =   0.0960000
        k(   11) = (  -0.2000000  -0.2000000   0.4000000), wk =   0.0480000
        k(   12) = (  -0.2000000   0.7000000  -0.5000000), wk =   0.0960000
        k(   13) = (  -0.2000000   0.6000000  -0.4000000), wk =   0.0480000
        k(   14) = (  -0.3000000   0.7000000  -0.4000000), wk =   0.0480000
        k(   15) = (   0.0000000   0.0000000   0.2000000), wk =   0.0120000
        k(   16) = (   0.0000000  -0.1000000   0.3000000), wk =   0.0480000
        k(   17) = (   0.0000000  -0.2000000   0.4000000), wk =   0.0480000
        k(   18) = (   0.0000000  -0.3000000   0.5000000), wk =   0.0480000
        k(   19) = (   0.0000000   0.6000000  -0.4000000), wk =   0.0240000
        k(   20) = (  -0.1000000  -0.1000000   0.4000000), wk =   0.0480000
        k(   21) = (  -0.1000000  -0.2000000   0.5000000), wk =   0.0960000
        k(   22) = (  -0.1000000   0.7000000  -0.4000000), wk =   0.0960000
        k(   23) = (  -0.2000000   0.2000000   0.2000000), wk =   0.0160000
        k(   24) = (  -0.2000000   0.8000000  -0.4000000), wk =   0.0480000
        k(   25) = (  -0.2000000   0.7000000  -0.3000000), wk =   0.0480000
        k(   26) = (  -0.3000000   0.3000000   0.2000000), wk =   0.0480000
        k(   27) = (   0.6000000  -0.6000000   0.2000000), wk =   0.0480000
        k(   28) = (   0.6000000  -0.7000000   0.3000000), wk =   0.0480000
        k(   29) = (   0.5000000  -0.5000000   0.2000000), wk =   0.0240000
        k(   30) = (   0.5000000  -0.6000000   0.3000000), wk =   0.0960000
        k(   31) = (   0.4000000  -0.6000000   0.4000000), wk =   0.0160000
        k(   32) = (   0.0000000   0.0000000   0.4000000), wk =   0.0120000
        k(   33) = (   0.0000000  -0.1000000   0.5000000), wk =   0.0480000
        k(   34) = (   0.0000000  -0.2000000   0.6000000), wk =   0.0480000
        k(   35) = (   0.0000000   0.7000000  -0.3000000), wk =   0.0240000
        k(   36) = (  -0.1000000  -0.1000000   0.6000000), wk =   0.0480000
        k(   37) = (  -0.1000000   0.8000000  -0.3000000), wk =   0.0960000
        k(   38) = (  -0.2000000   0.8000000  -0.2000000), wk =   0.0160000
        k(   39) = (   0.6000000  -0.6000000   0.4000000), wk =   0.0160000
        k(   40) = (   0.5000000  -0.5000000   0.4000000), wk =   0.0240000
        k(   41) = (   0.0000000   0.0000000   0.6000000), wk =   0.0120000
        k(   42) = (   0.0000000  -0.1000000   0.7000000), wk =   0.0480000
        k(   43) = (   0.0000000   0.8000000  -0.2000000), wk =   0.0240000
        k(   44) = (  -0.1000000   0.9000000  -0.2000000), wk =   0.0480000
        k(   45) = (   0.0000000   0.0000000   0.8000000), wk =   0.0120000
        k(   46) = (   0.0000000   0.9000000  -0.1000000), wk =   0.0240000
        k(   47) = (   0.0000000   0.0000000  -1.0000000), wk =   0.0020000

     Dense  grid:     9597 G-vectors     FFT dimensions: (  30,  30,  30)

     Estimated max dynamical RAM per process >      44.56 MB


     G-vector sticks info
     --------------------
     sticks:   dense  smooth     PW     G-vecs:    dense   smooth      PW
     Sum         619     619    197                 9597     9597    1721

     Using Slab Decomposition



     bravais-lattice index     =            3
     lattice parameter (alat)  =       6.2350  a.u.
     unit-cell volume          =     121.1935 (a.u.)^3
     number of atoms/cell      =            1
     number of atomic types    =            1
     number of electrons       =        13.00
     number of Kohn-Sham states=           11
     kinetic-energy cutoff     =      70.0000  Ry
     charge density cutoff     =     280.0000  Ry
     scf convergence threshold =      1.0E-10
     mixing beta               =       0.7000
     number of iterations used =            8  plain     mixing
     Exchange-correlation= SLA  PW   PBE  PBE
                           (   1   4   3   4   0   0   0)

     celldm(1)=   6.235000  celldm(2)=   0.000000  celldm(3)=   0.000000
     celldm(4)=   0.000000  celldm(5)=   0.000000  celldm(6)=   0.000000

     crystal axes: (cart. coord. in units of alat)
               a(1) = (   0.500000   0.500000   0.500000 )  
               a(2) = (  -0.500000   0.500000   0.500000 )  
               a(3) = (  -0.500000  -0.500000   0.500000 )  

     reciprocal axes: (cart. coord. in units 2 pi/alat)
               b(1) = (  1.000000  0.000000  1.000000 )  
               b(2) = ( -1.000000  1.000000  0.000000 )  
               b(3) = (  0.000000 -1.000000  1.000000 )  


     PseudoPot. # 1 for Nb read from file:
     ./pseudo/nb_pbe_v1.uspp.F.UPF
     MD5 check sum: 573aab8a2fa660278ed4a62cd769473f
     Pseudo is Ultrasoft + core correction, Zval = 13.0
     Generated by new atomic code, or converted to UPF format
     Using radial grid of  887 points,  6 beta functions with: 
                l(1) =   0
                l(2) =   0
                l(3) =   1
                l(4) =   1
                l(5) =   2
                l(6) =   2
     Q(r) pseudized with  6 coefficients,  rinner =    1.000   1.000   1.000
                                                       1.000   1.000

     atomic species   valence    mass     pseudopotential
        Nb            13.00    92.90600     Nb( 1.00)

     48 Sym. Ops., with inversion, found



   Cartesian axes

     site n.     atom                  positions (alat units)
         1           Nb  tau(   1) = (   0.0000000   0.0000000   0.0000000  )

     number of k points=    47  Marzari-Vanderbilt smearing, width (Ry)=  0.0200
                       cart. coord. in units 2pi/alat
        k(    1) = (   0.0000000   0.0000000   0.0000000), wk =   0.0020000
        k(    2) = (   0.0000000  -0.1000000   0.1000000), wk =   0.0240000
        k(    3) = (   0.0000000  -0.2000000   0.2000000), wk =   0.0240000
        k(    4) = (   0.0000000  -0.3000000   0.3000000), wk =   0.0240000
        k(    5) = (   0.0000000  -0.4000000   0.4000000), wk =   0.0240000
        k(    6) = (   0.0000000   0.5000000  -0.5000000), wk =   0.0120000
        k(    7) = (  -0.1000000  -0.1000000   0.2000000), wk =   0.0480000
        k(    8) = (  -0.1000000  -0.2000000   0.3000000), wk =   0.0960000
        k(    9) = (  -0.1000000  -0.3000000   0.4000000), wk =   0.0960000
        k(   10) = (  -0.1000000   0.6000000  -0.5000000), wk =   0.0960000
        k(   11) = (  -0.2000000  -0.2000000   0.4000000), wk =   0.0480000
        k(   12) = (  -0.2000000   0.7000000  -0.5000000), wk =   0.0960000
        k(   13) = (  -0.2000000   0.6000000  -0.4000000), wk =   0.0480000
        k(   14) = (  -0.3000000   0.7000000  -0.4000000), wk =   0.0480000
        k(   15) = (   0.0000000   0.0000000   0.2000000), wk =   0.0120000
        k(   16) = (   0.0000000  -0.1000000   0.3000000), wk =   0.0480000
        k(   17) = (   0.0000000  -0.2000000   0.4000000), wk =   0.0480000
        k(   18) = (   0.0000000  -0.3000000   0.5000000), wk =   0.0480000
        k(   19) = (   0.0000000   0.6000000  -0.4000000), wk =   0.0240000
        k(   20) = (  -0.1000000  -0.1000000   0.4000000), wk =   0.0480000
        k(   21) = (  -0.1000000  -0.2000000   0.5000000), wk =   0.0960000
        k(   22) = (  -0.1000000   0.7000000  -0.4000000), wk =   0.0960000
        k(   23) = (  -0.2000000   0.2000000   0.2000000), wk =   0.0160000
        k(   24) = (  -0.2000000   0.8000000  -0.4000000), wk =   0.0480000
        k(   25) = (  -0.2000000   0.7000000  -0.3000000), wk =   0.0480000
        k(   26) = (  -0.3000000   0.3000000   0.2000000), wk =   0.0480000
        k(   27) = (   0.6000000  -0.6000000   0.2000000), wk =   0.0480000
        k(   28) = (   0.6000000  -0.7000000   0.3000000), wk =   0.0480000
        k(   29) = (   0.5000000  -0.5000000   0.2000000), wk =   0.0240000
        k(   30) = (   0.5000000  -0.6000000   0.3000000), wk =   0.0960000
        k(   31) = (   0.4000000  -0.6000000   0.4000000), wk =   0.0160000
        k(   32) = (   0.0000000   0.0000000   0.4000000), wk =   0.0120000
        k(   33) = (   0.0000000  -0.1000000   0.5000000), wk =   0.0480000
        k(   34) = (   0.0000000  -0.2000000   0.6000000), wk =   0.0480000
        k(   35) = (   0.0000000   0.7000000  -0.3000000), wk =   0.0240000
        k(   36) = (  -0.1000000  -0.1000000   0.6000000), wk =   0.0480000
        k(   37) = (  -0.1000000   0.8000000  -0.3000000), wk =   0.0960000
        k(   38) = (  -0.2000000   0.8000000  -0.2000000), wk =   0.0160000
        k(   39) = (   0.6000000  -0.6000000   0.4000000), wk =   0.0160000
        k(   40) = (   0.5000000  -0.5000000   0.4000000), wk =   0.0240000
        k(   41) = (   0.0000000   0.0000000   0.6000000), wk =   0.0120000
        k(   42) = (   0.0000000  -0.1000000   0.7000000), wk =   0.0480000
        k(   43) = (   0.0000000   0.8000000  -0.2000000), wk =   0.0240000
        k(   44) = (  -0.1000000   0.9000000  -0.2000000), wk =   0.0480000
        k(   45) = (   0.0000000   0.0000000   0.8000000), wk =   0.0120000
        k(   46) = (   0.0000000   0.9000000  -0.1000000), wk =   0.0240000
        k(   47) = (   0.0
000000   0.0000000  -1.0000000), wk =   0.0020000

     Dense  grid:     9597 G-vectors     FFT dimensions: (  30,  30,  30)

     Estimated max dynamical RAM per process >      44.56 MB

     G-vector sticks info
     --------------------
     sticks:   dense  smooth     PW     G-vecs:    dense   smooth      PW
     Sum         619     619    197                 9597     9597    1721

     Using Slab Decomposition



     bravais-lattice index     =            3
     lattice parameter (alat)  =       6.2350  a.u.
     unit-cell volume          =     121.1935 (a.u.)^3
     number of atoms/cell      =            1
     number of atomic types    =            1
     number of electrons       =        13.00
     number of Kohn-Sham states=           11
     kinetic-energy cutoff     =      70.0000  Ry
     charge density cutoff     =     280.0000  Ry
     scf convergence threshold =      1.0E-10
     mixing beta               =       0.7000
     number of iterations used =            8  plain     mixing
     Exchange-correlation= SLA  PW   PBE  PBE
                           (   1   4   3   4   0   0   0)

     celldm(1)=   6.235000  celldm(2)=   0.000000  celldm(3)=   0.000000
     celldm(4)=   0.000000  celldm(5)=   0.000000  celldm(6)=   0.000000

     crystal axes: (cart. coord. in units of alat)
               a(1) = (   0.500000   0.500000   0.500000 )  
               a(2) = (  -0.500000   0.500000   0.500000 )  
               a(3) = (  -0.500000  -0.500000   0.500000 )  

     reciprocal axes: (cart. coord. in units 2 pi/alat)
               b(1) = (  1.000000  0.000000  1.000000 )  
               b(2) = ( -1.000000  1.000000  0.000000 )  
               b(3) = (  0.000000 -1.000000  1.000000 )  


     PseudoPot. # 1 for Nb read from file:
     ./pseudo/nb_pbe_v1.uspp.F.UPF
     MD5 check sum: 573aab8a2fa660278ed4a62cd769473f
     Pseudo is Ultrasoft + core correction, Zval = 13.0
     Generated by new atomic code, or converted to UPF format
     Using radial grid of  887 points,  6 beta functions with: 
                l(1) =   0
                l(2) =   0
                l(3) =   1
                l(4) =   1
                l(5) =   2
                l(6) =   2
     Q(r) pseudized with  6 coefficients,  rinner =    1.000   1.000   1.000
                                                       1.000   1.000

     atomic species   valence    mass     pseudopotential
        Nb            13.00    92.90600     Nb( 1.00)

     48 Sym. Ops., with inversion, found



   Cartesian axes

     site n.     atom                  positions (alat units)
         1           Nb  tau(   1) = (   0.0000000   0.0000000   0.0000000  )

     number of k points=    47  Marzari-Vanderbilt smearing, width (Ry)=  0.0200
                       cart. coord. in units 2pi/alat
        k(    1) = (   0.0000000   0.0000000   0.0000000), wk =   0.0020000
        k(    2) = (   0.0000000  -0.1000000   0.1000000), wk =   0.0240000
        k(    3) = (   0.0000000  -0.2000000   0.2000000), wk =   0.0240000
        k(    4) = (   0.0000000  -0.3000000   0.3000000), wk =   0.0240000
        k(    5) = (   0.0000000  -0.4000000   0.4000000), wk =   0.0240000
        k(    6) = (   0.0000000   0.5000000  -0.5000000), wk =   0.0120000
        k(    7) = (  -0.1000000  -0.1000000   0.2000000), wk =   0.0480000
        k(    8) = (  -0.1000000  -0.2000000   0.3000000), wk =   0.0960000
        k(    9) = (  -0.1000000  -0.3000000   0.4000000), wk =   0.0960000
        k(   10) = (  -0.1000000   0.6000000  -0.5000000), wk =   0.0960000
        k(   11) = (  -0.2000000  -0.2000000   0.4000000), wk =   0.0480000
        k(   12) = (  -0.2000000   0.7000000  -0.5000000), wk =   0.0960000
        k(   13) = (  -0.2000000   0.6000000  -0.4000000), wk =   0.0480000
        k(   14) = (  -0.3000000   0.7000000  -0.4000000), wk =   0.0480000
        k(   15) = (   0.0000000   0.0000000   0.2000000), wk =   0.0120000
        k(   16) = (   0.0000000  -0.1000000   0.3000000), wk =   0.0480000
        k(   17) = (   0.0000000  -0.2000000   0.4000000), wk =   0.0480000
        k(   18) = (   0.0000000  -0.3000000   0.5000000), wk =   0.0480000
        k(   19) = (   0.0000000   0.6000000  -0.4000000), wk =   0.0240000
        k(   20) = (  -0.1000000  -0.1000000   0.4000000), wk =   0.0480000
        k(   21) = (  -0.1000000  -0.2000000   0.5000000), wk =   0.0960000
        k(   22) = (  -0.1000000   0.7000000  -0.4000000), wk =   0.0960000
        k(   23) = (  -0.2000000   0.2000000   0.2000000), wk =   0.0160000
        k(   24) = (  -0.2000000   0.8000000  -0.4000000), wk =   0.0480000
        k(   25) = (  -0.2000000   0.7000000  -0.3000000), wk =   0.0480000
        k(   26) = (  -0.3000000   0.3000000   0.2000000), wk =   0.0480000
        k(   27) = (   0.6000000  -0.6000000   0.2000000), wk =   0.0480000
        k(   28) = (   0.6000000  -0.7000000   0.3000000), wk =   0.0480000
        k(   29) = (   0.5000000  -0.5000000   0.2000000), wk =   0.0240000
        k(   30) = (   0.5000000  -0.6000000   0.3000000), wk =   0.0960000
        k(   31) = (   0.4000000  -0.6000000   0.4000000), wk =   0.0160000
        k(   32) = (   0.0000000   0.0000000   0.4000000), wk =   0.0120000
        k(   33) = (   0.0000000  -0.1000000   0.5000000), wk =   0.0480000
        k(   34) = (   0.0000000  -0.2000000   0.6000000), wk =   0.0480000
        k(   35) = (   0.0000000   0.7000000  -0.3000000), wk =   0.0240000
        k(   36) = (  -0.1000000  -0.1000000   0.6000000), wk =   0.0480000
        k(   37) = (  -0.1000000   0.8000000  -0.3000000), wk =   0.0960000
        k(   38) = (  -0.2000000   0.8000000  -0.2000000), wk =   0.0160000
        k(   39) = (   0.6000000  -0.6000000   0.4000000), wk =   0.0160000
        k(   40) = (   0.5000000  -0.5000000   0.4000000), wk =   0.0240000
        k(   41) = (   0.0000000   0.0000000   0.6000000), wk =   0.0120000
        k(   42) = (   0.0000000  -0.1000000   0.7000000), wk =   0.0480000
        k(   43) = (   0.0000000   0.8000000  -0.2000000), wk =   0.0240000
        k(   44) = (  -0.1000000   0.9000000  -0.2000000), wk =   0.0480000
        k(   45) = (   0.0000000   0.0000000   0.8000000), wk =   0.0120000
        k(   46) = (   0.0000000   0.9000000  -0.1000000), wk =   0.0240000
        k(   47) = (   0.0000000   0.0000000  -1.0000000), wk =   0.0020000

     Dense  grid:     9597 G-vectors     FFT dimensions: (  30,  30,  30)

     Estimated max dynamical RAM per process >      44.56 MB

     Check: negative core charge=   -0.000001

     Initial potential from superposition of free atoms

     Check: negative core charge=   -0.000001

     Initial potential from superposition of free atoms

     Check: negative core charge=   -0.000001

     Initial potential from superposition of free atoms

     starting charge      12.9973, renormalised to      13.0000

     starting charge      12.9973, renormalised to      13.0000

     starting charge      12.9973, renormalised to      13.0000

     Check: negative core charge=   -0.000001

     Initial potential from superposition of free atoms

     starting charge      12.9973, renormalised to      13.0000
     Starting wfcs are   13 randomized atomic wfcs
     Starting wfcs are   13 randomized atomic wfcs
     Starting wfcs are   13 randomized atomic wfcs
     Starting wfcs are   13 randomized atomic wfcs

     total cpu time spent up to now is        0.5 secs

     Self-consistent Calculation

     iteration #  1     ecut=    70.00 Ry     beta= 0.70
     Davidson diagonalization with overlap

     total cpu time spent up to now is        0.5 secs

     Self-consistent Calculation

     iteration #  1     ecut=    70.00 Ry     beta= 0.70
     Davidson diagonalization with overlap

     total cpu time spent up to now is        0.5 secs

     Self-consistent Calculation

     iteration #  1     ecut=    70.00 Ry     beta= 0.70
     Davidson diagonalization with overlap

     total cpu time spent up to now is        0.5 secs

     Self-consistent Calculation

     iteration #  1     ecut=    70.00 Ry     beta= 0.70
     Davidson diagonalization with overlap
     ethr =  1.00E-02,  avg # of iterations =  3.6
     ethr =  1.00E-02,  avg # of iterations =  3.6
     ethr =  1.00E-02,  avg # of iterations =  3.6
     ethr =  1.00E-02,  avg # of iterations =  3.6

     Threshold (ethr) on eigenvalues was too large:
     Diagonalizing with lowered threshold

     Davidson diagonalization with overlap

     Threshold (ethr) on eigenvalues was too large:
     Diagonalizing with lowered threshold

     Davidson diagonalization with overlap

     Threshold (ethr) on eigenvalues was too large:
     Diagonalizing with lowered threshold

     Davidson diagonalization with overlap

     Threshold (ethr) on eigenvalues was too large:
     Diagonalizing with lowered threshold

     Davidson diagonalization with overlap
     ethr =  6.79E-04,  avg # of iterations =  1.1
     ethr =  6.79E-04,  avg # of iterations =  1.1
     ethr =  6.79E-04,  avg # of iterations =  1.1
     ethr =  6.79E-04,  avg # of iterations =  1.1

     total cpu time spent up to now is        1.6 secs

     total energy              =    -117.90974666 Ry
     estimated scf accuracy    <       0.09061909 Ry

     iteration #  2     ecut=    70.00 Ry     beta= 0.70
     Davidson diagonalization with overlap

     total cpu time spent up to now is        1.6 secs

     total energy              =    -117.90974666 Ry
     estimated scf accuracy    <       0.09061909 Ry

     iteration #  2     ecut=    70.00 Ry     beta= 0.70
     Davidson diagonalization with overlap

     total cpu time spent up to now is        1.7 secs

     total energy              =    -117.90974666 Ry
     estimated scf accuracy    <       0.09061909 Ry

     iteration #  2     ecut=    70.00 Ry     beta= 0.70
     Davidson diagonalization with overlap

     total cpu time spent up to now is        1.7 secs

     total energy              =    -117.90974666 Ry
     estimated scf accuracy    <       0.09061909 Ry

     iteration #  2     ecut=    70.00 Ry     beta= 0.70
     Davidson diagonalization with overlap
     ethr =  6.97E-04,  avg # of iterations =  2.1
     ethr =  6.97E-04,  avg # of iterations =  2.1
     ethr =  6.97E-04,  avg # of iterations =  2.1
     ethr =  6.97E-04,  avg # of iterations =  2.1

     total cpu time spent up to now is        2.3 secs

     total energy              =    -117.93062055 Ry
     estimated scf accuracy    <       0.00573668 Ry

     iteration #  3     ecut=    70.00 Ry     beta= 0.70
     Davidson diagonalization with overlap

     total cpu time spent up to now is        2.3 secs

     total energy              =    -117.93062055 Ry
     estimated scf accuracy    <       0.00573668 Ry

     iteration #  3     ecut=    70.00 Ry     beta= 0.70
     Davidson diagonalization with overlap

     total cpu time spent up to now is        2.3 secs

     total energy              =    -117.93062055 Ry
     estimated scf accuracy    <       0.00573668 Ry

     iteration #  3     ecut=    70.00 Ry     beta= 0.70
     Davidson diagonalization with overlap

     total cpu time spent up to now is        2.3 secs

     total energy              =    -117.93062055 Ry
     estimated scf accuracy    <       0.00573668 Ry

     iteration #  3     ecut=    70.00 Ry     beta= 0.70
     Davidson diagonalization with overlap
     ethr =  4.41E-05,  avg # of iterations =  2.7
     ethr =  4.41E-05,  avg # of iterations =  2.7
     ethr =  4.41E-05,  avg # of iterations =  2.7
     ethr =  4.41E-05,  avg # of iterations =  2.7

     total cpu time spent up to now is        3.0 secs

     total energy              =    -117.93154822 Ry
     estimated scf accuracy    <       0.00013319 Ry

     iteration #  4     ecut=    70.00 Ry     beta= 0.70
     Davidson diagonalization with overlap

     total cpu time spent up to now is        3.0 secs

     total energy              =    -117.93154822 Ry
     estimated scf accuracy    <       0.00013319 Ry

     iteration #  4     ecut=    70.00 Ry     beta= 0.70
     Davidson diagonalization with overlap

     total cpu time spent up to now is        3.1 secs

     total energy              =    -117.93154822 Ry
     estimated scf accuracy    <       0.00013319 Ry

     iteration #  4     ecut=    70.00 Ry     beta= 0.70
     Davidson diagonalization with overlap

     total cpu time spent up to now is        3.1 secs

     total energy              =    -117.93154822 Ry
     estimated scf accuracy    <       0.00013319 Ry

     iteration #  4     ecut=    70.00 Ry     beta= 0.70
     Davidson diagonalization with overlap
     ethr =  1.02E-06,  avg # of iterations =  3.3
     ethr =  1.02E-06,  avg # of iterations =  3.3
     ethr =  1.02E-06,  avg # of iterations =  3.3
     ethr =  1.02E-06,  avg # of iterations =  3.3

     total cpu time spent up to now is        3.8 secs

     total energy              =    -117.93155948 Ry
     estimated scf accuracy    <       0.00000729 Ry

     iteration #  5     ecut=    70.00 Ry     beta= 0.70
     Davidson diagonalization with overlap

     total cpu time spent up to now is        3.8 secs

     total energy              =    -117.93155948 Ry
     estimated scf accuracy    <       0.00000729 Ry

     iteration #  5     ecut=    70.00 Ry     beta= 0.70
     Davidson diagonalization with overlap

     total cpu time spent up to now is        3.8 secs

     total energy              =    -117.93155948 Ry
     estimated scf accuracy    <       0.00000729 Ry

     iteration #  5     ecut=    70.00 Ry     beta= 0.70
     Davidson diagonalization with overlap

     total cpu time spent up to now is        3.8 secs

     total energy              =    -117.93155948 Ry
     estimated scf accuracy    <       0.00000729 Ry

     iteration #  5     ecut=    70.00 Ry     beta= 0.70
     Davidson diagonalization with overlap
     ethr =  5.61E-08,  avg # of iterations =  2.1
     ethr =  5.61E-08,  avg # of iterations =  2.1
     ethr =  5.61E-08,  avg # of iterations =  2.1
     ethr =  5.61E-08,  avg # of iterations =  2.1

     total cpu time spent up to now is        4.4 secs

     total energy              =    -117.93156182 Ry
     estimated scf accuracy    <       0.00000264 Ry

     iteration #  6     ecut=    70.00 Ry     beta= 0.70
     Davidson diagonalization with overlap

     total cpu time spent up to now is        4.4 secs

     total energy              =    -117.93156182 Ry
     estimated scf accuracy    <       0.00000264 Ry

     iteration #  6     ecut=    70.00 Ry     beta= 0.70
     Davidson diagonalization with overlap

     total cpu time spent up to now is        4.5 secs

     total energy              =    -117.93156182 Ry
     estimated scf accuracy    <       0.00000264 Ry

     iteration #  6     ecut=    70.00 Ry     beta= 0.70
     Davidson diagonalization with overlap

     total cpu time spent up to now is        4.5 secs

     total energy              =    -117.93156182 Ry
     estimated scf accuracy    <       0.00000264 Ry

     iteration #  6     ecut=    70.00 Ry     beta= 0.70
     Davidson diagonalization with overlap
     ethr =  2.03E-08,  avg # of iterations =  2.0
     ethr =  2.03E-08,  avg # of iterations =  2.0
     ethr =  2.03E-08,  avg # of iterations =  2.0
     ethr =  2.03E-08,  avg # of iterations =  2.0

     total cpu time spent up to now is        5.0 secs

     total energy              =    -117.93156227 Ry
     estimated scf accuracy    <          6.9E-09 Ry

     iteration #  7     ecut=    70.00 Ry     beta= 0.70
     Davidson diagonalization with overlap

     total cpu time spent up to now is        5.0 secs

     total energy              =    -117.93156227 Ry
     estimated scf accuracy    <          6.9E-09 Ry

     iteration #  7     ecut=    70.00 Ry     beta= 0.70
     Davidson diagonalization with overlap

     total cpu time spent up to now is        5.1 secs

     total energy              =    -117.93156227 Ry
     estimated scf accuracy    <          6.9E-09 Ry

     iteration #  7     ecut=    70.00 Ry     beta= 0.70
     Davidson diagonalization with overlap

     total cpu time spent up to now is        5.1 secs

     total energy              =    -117.93156227 Ry
     estimated scf accuracy    <          6.9E-09 Ry

     iteration #  7     ecut=    70.00 Ry     beta= 0.70
     Davidson diagonalization with overlap
     ethr =  5.27E-11,  avg # of iterations =  3.6
     ethr =  5.27E-11,  avg # of iterations =  3.6
     ethr =  5.27E-11,  avg # of iterations =  3.6
     ethr =  5.27E-11,  avg # of iterations =  3.6

     total cpu time spent up to now is        5.7 secs

     total energy              =    -117.93156228 Ry
     estimated scf accuracy    <          5.1E-09 Ry

     iteration #  8     ecut=    70.00 Ry     beta= 0.70
     Davidson diagonalization with overlap

     total cpu time spent up to now is        5.7 secs

     total energy              =    -117.93156228 Ry
     estimated scf accuracy    <          5.1E-09 Ry

     iteration #  8     ecut=    70.00 Ry     beta= 0.70
     Davidson diagonalization with overlap

     total cpu time spent up to now is        5.8 secs

     total energy              =    -117.93156228 Ry
     estimated scf accuracy    <          5.1E-09 Ry

     iteration #  8     ecut=    70.00 Ry     beta= 0.70
     Davidson diagonalization with overlap

     total cpu time spent up to now is        5.8 secs

     total energy              =    -117.93156228 Ry
     estimated scf accuracy    <          5.1E-09 Ry

     iteration #  8     ecut=    70.00 Ry     beta= 0.70
     Davidson diagonalization with overlap
     ethr =  3.91E-11,  avg # of iterations =  2.0
     ethr =  3.91E-11,  avg # of iterations =  2.0
     ethr =  3.91E-11,  avg # of iterations =  2.0
     ethr =  3.91E-11,  avg # of iterations =  2.0

     total cpu time spent up to now is        6.3 secs

     total energy              =    -117.93156228 Ry
     estimated scf accuracy    <          2.9E-10 Ry

     iteration #  9     ecut=    70.00 Ry     beta= 0.70
     Davidson diagonalization with overlap

     total cpu time spent up to now is        6.3 secs

     total energy              =    -117.93156228 Ry
     estimated scf accuracy    <          2.9E-10 Ry

     iteration #  9     ecut=    70.00 Ry     beta= 0.70
     Davidson diagonalization with overlap

     total cpu time spent up to now is        6.4 secs

     total energy              =    -117.93156228 Ry
     estimated scf accuracy    <          2.9E-10 Ry

     iteration #  9     ecut=    70.00 Ry     beta= 0.70
     Davidson diagonalization with overlap

     total cpu time spent up to now is        6.4 secs

     total energy              =    -117.93156228 Ry
     estimated scf accuracy    <          2.9E-10 Ry

     iteration #  9     ecut=    70.00 Ry     beta= 0.70
     Davidson diagonalization with overlap
     ethr =  2.24E-12,  avg # of iterations =  3.1
     ethr =  2.24E-12,  avg # of iterations =  3.1
     ethr =  2.24E-12,  avg # of iterations =  3.1
     ethr =  2.24E-12,  avg # of iterations =  3.1

     total cpu time spent up to now is        7.0 secs

     total energy              =    -117.93156228 Ry
     estimated scf accuracy    <          9.4E-10 Ry

     iteration # 10     ecut=    70.00 Ry     beta= 0.70
     Davidson diagonalization with overlap

     total cpu time spent up to now is        7.0 secs

     total energy              =    -117.93156228 Ry
     estimated scf accuracy    <          9.4E-10 Ry

     iteration # 10     ecut=    70.00 Ry     beta= 0.70
     Davidson diagonalization with overlap

     total cpu time spent up to now is        7.1 secs

     total energy              =    -117.93156228 Ry
     estimated scf accuracy    <          9.4E-10 Ry

     iteration # 10     ecut=    70.00 Ry     beta= 0.70
     Davidson diagonalization with overlap

     total cpu time spent up to now is        7.1 secs

     total energy              =    -117.93156228 Ry
     estimated scf accuracy    <          9.4E-10 Ry

     iteration # 10     ecut=    70.00 Ry     beta= 0.70
     Davidson diagonalization with overlap
     ethr =  2.24E-12,  avg # of iterations =  2.7
     ethr =  2.24E-12,  avg # of iterations =  2.7
     ethr =  2.24E-12,  avg # of iterations =  2.7

     total cpu time spent up to now is        7.7 secs

     End of self-consistent calculation

          k = 0.0000 0.0000 0.0000 (  1205 PWs)   bands (ev):

   -36.3212 -11.6264 -11.6264 -11.6264  12.1107  18.3958  18.3958  18.3958
    21.3133  21.3133  32.2199

          k = 0.0000-0.1000 0.1000 (  1203 PWs)   bands (ev):

   -36.2979 -11.7668 -11.6691 -11.6275  12.5157  18.1491  18.3224  18.7901
    20.9750  21.3172  32.5325

          k = 0.0000-0.2000 0.2000 (  1194 PWs)   bands (ev):

   -36.2364 -12.1236 -11.7794 -11.6307  13.5284  17.5714  18.0128  19.9239
    20.7042  21.3829  32.7796

          k = 0.0000-0.3000 0.3000 (  1198 PWs)   bands (ev):

   -36.1594 -12.5453 -11.9126 -11.6347  14.3772  16.9573  18.1254  20.9837
    21.5861  21.6280  31.6693

          k = 0.0000-0.4000 0.4000 (  1208 PWs)   bands (ev):

   -36.0962 -12.8729 -12.0181 -11.6381  14.4085  16.5191  19.3767  21.3421
    21.8783  23.4826  30.2359

          k = 0.0000 0.5000-0.5000 (  1204 PWs)   bands (ev):

   -36.0718 -12.9951 -12.0579 -11.6394  14.3008  16.3627  20.3273  21.3494
    22.0324  24.4319  30.1601

          k =-0.1000-0.1000 0.2000 (  1195 PWs)   bands (ev):

   -36.2555 -12.0116 -11.7180 -11.6611  13.2439  17.8449  17.9441  19.6346
    20.5659  21.4710  33.1031

          k =-0.1000-0.2000 0.3000 (  1192 PWs)   bands (ev):

   -36.1861 -12.3753 -11.8523 -11.6777  14.3119  17.2562  17.6129  20.5134
    21.1747  21.7303  32.7416

          k =-0.1000-0.3000 0.4000 (  1197 PWs)   bands (ev):

   -36.1159 -12.7194 -11.9989 -11.6851  14.7587  16.7465  18.1928  20.9436
    21.9639  23.1082  31.1332

          k =-0.1000 0.6000-0.5000 (  1201 PWs)   bands (ev):

   -36.0719 -12.9252 -12.0895 -11.6890  14.6186  16.4750  19.3182  21.2288
    22.2851  24.7208  29.9943

          k =-0.2000-0.2000 0.4000 (  1194 PWs)   bands (ev):

   -36.1234 -12.6213 -12.0011 -11.7367  15.1967  16.8532  17.4082  20.5807
    22.0316  23.1616  31.7353

          k =-0.2000 0.7000-0.5000 (  1197 PWs)   bands (ev):

   -36.0721 -12.7799 -12.1808 -11.7609  15.3786  16.6377  17.9488  21.0019
    22.1664  25.3158  30.0763

          k =-0.2000 0.6000-0.4000 (  1199 PWs)   bands (ev):

   -36.0524 -12.8310 -12.2606 -11.7675  15.2850  16.6011  18.3553  21.1963
    22.3474  26.5301  28.9953

          k =-0.3000 0.7000-0.4000 (  1195 PWs)   bands (ev):

   -36.0450 -12.6966 -12.4298 -11.7951  15.7858  16.8178  17.5583  21.4488
    22.0423  27.6794  28.6038

          k = 0.0000 0.0000 0.2000 (  1213 PWs)   bands (ev):

   -36.2752 -11.8140 -11.7126 -11.7126  12.9056  18.3411  18.3411  18.7648
    20.1816  21.7164  33.2881

          k = 0.0000-0.1000 0.3000 (  1194 PWs)   bands (ev):

   -36.2154 -12.1260 -11.8249 -11.7370  13.8834  17.9199  18.0767  19.6247
    19.7842  22.0209  33.5785

          k = 0.0000-0.2000 0.4000 (  1195 PWs)   bands (ev):

   -36.1405 -12.5257 -11.9605 -11.7360  14.7313  17.3468  17.7498  20.1267
    21.4951  22.2640  31.8909

          k = 0.0000-0.3000 0.5000 (  1192 PWs)   bands (ev):

   -36.0791 -12.8384 -12.0678 -11.7338  14.7457  16.9297  18.3506  20.6692
    22.8412  23.3778  30.6234

          k = 0.0000 0.6000-0.4000 (  1204 PWs)   bands (ev):

   -36.0554 -12.9553 -12.1082 -11.7329  14.6192  16.7800  18.8594  20.6037
    23.5408  24.3522  29.9145

          k =-0.1000-0.1000 0.4000 (  1205 PWs)   bands (ev):

   -36.1499 -12.3928 -11.9585 -11.8053  14.8370  17.3769  17.9626  19.4410
    20.9798  22.4049  32.5751

          k =-0.1000-0.2000 0.5000 (  1203 PWs)   bands (ev):

   -36.0836 -12.6784 -12.1156 -11.8173  15.3347  16.9243  17.8333  20.0671
    22.1863  23.4491  31.2529

          k =-0.1000 0.7000-0.4000 (  1196 PWs)   bands (ev):

   -36.0422 -12.8543 -12.2146 -11.8170  15.1643  17.0603  17.8359  20.3544
    23.0380  25.3237  29.8266

          k =-0.2000 0.2000 0.2000 (  1196 PWs)   bands (ev):

   -36.2035 -12.3191 -11.7323 -11.7323  14.1770  17.2916  17.2916  21.1651
    21.1651  21.2023  33.8298

          k =-0.2000 0.8000-0.4000 (  1210 PWs)   bands (ev):

   -36.0372 -12.7432 -12.3373 -11.8428  15.9404  16.3752  17.6647  20.6417
    22.2443  25.8786  29.9307

          k =-0.2000 0.7000-0.3000 (  1200 PWs)   bands (ev):

   -36.0194 -12.7338 -12.4618 -11.8464  15.9355  16.8549  17.0105  21.0925
    22.3990  27.7996  28.7076

          k =-0.3000 0.3000 0.2000 (  1199 PWs)   bands (ev):

   -36.1385 -12.6062 -11.9062 -11.7502  15.1710  16.7624  17.1499  21.2326
    21.6308  23.1897  32.4127

          k = 0.6000-0.6000 0.2000 (  1192 PWs)   bands (ev):

   -36.0854 -12.8005 -12.0790 -11.7647  15.2085  16.4372  18.2859  21.4916
    21.9509  25.1324  30.4351

          k = 0.6000-0.7000 0.3000 (  1189 PWs)   bands (ev):

   -36.0906 -12.7220 -12.0536 -11.8496  15.8987  16.6132  17.1058  21.5010
    21.9486  25.3940  30.7998

          k = 0.5000-0.5000 0.2000 (  1192 PWs)   bands (ev):

   -36.0650 -12.8677 -12.1506 -11.7703  15.0820  16.3286  19.1093  21.5962
    22.0782  26.0439  29.1977

          k = 0.5000-0.6000 0.3000 (  1197 PWs)   bands (ev):

   -36.0609 -12.7199 -12.2473 -11.8843  15.8256  16.5448  17.9636  21.7403
    22.0993  27.1690  28.7343

          k = 0.4000-0.6000 0.4000 (  1199 PWs)   bands (ev):

   -36.0515 -12.5036 -12.5036 -11.9261  15.9717  17.2859  17.2859  21.9946
    21.9946  27.9139  29.1647

          k = 0.0000 0.0000 0.4000 (  1204 PWs)   bands (ev):

   -36.1600 -12.1981 -11.9422 -11.9422  14.7426  17.9926  18.5796  18.5796
    19.8197  22.5045  33.3324

          k = 0.0000-0.1000 0.5000 (  1204 PWs)   bands (ev):

   -36.0908 -12.4805 -12.0837 -11.9887  15.4970  16.9217  18.4270  19.3265
    21.2208  22.8338  32.2621

          k = 0.0000-0.2000 0.6000 (  1197 PWs)   bands (ev):

   -36.0341 -12.7473 -12.1956 -11.9781  15.4114  16.8279  18.1122  19.7680
    23.1198  24.0042  31.0243

          k = 0.0000 0.7000-0.3000 (  1192 PWs)   bands (ev):

   -36.0122 -12.8496 -12.2377 -11.9717  15.2050  17.0285  17.9889  19.6849
    24.1499  25.3761  29.4957

          k =-0.1000-0.1000 0.6000 (  1194 PWs)   bands (ev):

   -36.0310 -12.6318 -12.2614 -12.0442  15.9005  16.1035  18.5679  19.9365
    22.1250  23.9596  31.7733

          k =-0.1000 0.8000-0.3000 (  1194 PWs)   bands (ev):

   -35.9937 -12.7399 -12.3892 -12.0404  15.5438  16.2246  18.1677  20.5236
    23.0706  26.2668  29.6770

          k =-0.2000 0.8000-0.2000 (  1207 PWs)   bands (ev):

   -35.9783 -12.6111 -12.6111 -12.0418  15.8100  15.8100  17.8752  22.1213
    22.1213  28.6730  29.0940

          k = 0.6000-0.6000 0.4000 (  1196 PWs)   bands (ev):

   -36.0641 -12.6602 -12.0959 -12.0959  16.5614  16.5614  17.1568  22.0100
    22.0100  27.4235  28.9844

          k = 0.5000-0.5000 0.4000 (  1194 PWs)   bands (ev):

   -36.0540 -12.5316 -12.2976 -12.1120  16.5657  16.6191  17.5004  22.0730
    22.1536  27.7665  28.7505

          k = 0.0000 0.0000 0.6000 (  1192 PWs)   bands (ev):

   -36.0287 -12.4812 -12.2322 -12.2322  15.8139  16.0186  19.6581  19.6581
    21.3662  23.2395  33.2264

          k = 0.0000-0.1000 0.7000 (  1201 PWs)   bands (ev):

   -35.9779 -12.6346 -12.3494 -12.2675  15.3364  15.6573  19.8984  20.2658
    22.8516  24.6308  31.2653

          k = 0.0000 0.8000-0.2000 (  1208 PWs)   bands (ev):

   -35.9584 -12.7160 -12.3935 -12.2564  15.0891  15.5598  19.8591  20.3634
    23.9110  26.5722  28.8356

          k =-0.1000 0.9000-0.2000 (  1209 PWs)   bands (ev):

   -35.9449 -12.6388 -12.5099 -12.2913  15.0105  15.1889  19.9414  21.8292
    23.1351  26.7407  29.3237

          k = 0.0000 0.0000 0.8000 (  1212 PWs)   bands (ev):

   -35.9321 -12.5649 -12.4707 -12.4707  14.7311  14.9387  21.7123  21.7123
    22.9349  25.4112  29.9558

          k = 0.0000 0.9000-0.1000 (  1212 PWs)   bands (ev):

   -35.9145 -12.6054 -12.5163 -12.4791  14.5349  14.6149  22.1186  22.3151
    23.7261  27.0357  27.9043

          k = 0.0000 0.0000-1.0000 (  1168 PWs)   bands (ev):

   -35.8976 -12.5625 -12.5625 -12.5625  14.2888  14.2888  23.6572  23.6572
    23.6572  27.1221  27.1221

     the Fermi energy is    18.0743 ev

!    total energy              =    -117.93156228 Ry
     estimated scf accuracy    <          4.3E-13 Ry
     smearing contrib. (-TS)   =      -0.00075803 Ry
     internal energy E=F+TS    =    -117.93080425 Ry

     The total energy is F=E-TS. E is the sum of the following terms:
     one-electron contribution =     -15.73624591 Ry
     hartree contribution      =      14.89675779 Ry
     xc contribution           =     -18.44970379 Ry
     ewald contribution        =     -98.64161234 Ry

     convergence has been achieved in  10 iterations

     Writing all to output data dir ./tmp/Nb_k10.save/

     total cpu time spent up to now is        7.7 secs

     End of self-consistent calculation

          k = 0.0000 0.0000 0.0000 (  1205 PWs)   bands (ev):

   -36.3212 -11.6264 -11.6264 -11.6264  12.1107  18.3958  18.3958  18.3958
    21.3133  21.3133  32.2199

          k = 0.0000-0.1000 0.1000 (  1203 PWs)   bands (ev):

   -36.2979 -11.7668 -11.6691 -11.6275  12.5157  18.1491  18.3224  18.7901
    20.9750  21.3172  32.5325

          k = 0.0000-0.2000 0.2000 (  1194 PWs)   bands (ev):

   -36.2364 -12.1236 -11.7794 -11.6307  13.5284  17.5714  18.0128  19.9239
    20.7042  21.3829  32.7796

          k = 0.0000-0.3000 0.3000 (  1198 PWs)   bands (ev):

   -36.1594 -12.5453 -11.9126 -11.6347  14.3772  16.9573  18.1254  20.9837
    21.5861  21.6280  31.6693

          k = 0.0000-0.4000 0.4000 (  1208 PWs)   bands (ev):

   -36.0962 -12.8729 -12.0181 -11.6381  14.4085  16.5191  19.3767  21.3421
    21.8783  23.4826  30.2359

          k = 0.0000 0.5000-0.5000 (  1204 PWs)   bands (ev):

   -36.0718 -12.9951 -12.0579 -11.6394  14.3008  16.3627  20.3273  21.3494
    22.0324  24.4319  30.1601

          k =-0.1000-0.1000 0.2000 (  1195 PWs)   bands (ev):

   -36.2555 -12.0116 -11.7180 -11.6611  13.2439  17.8449  17.9441  19.6346
    20.5659  21.4710  33.1031

          k =-0.1000-0.2000 0.3000 (  1192 PWs)   bands (ev):

   -36.1861 -12.3753 -11.8523 -11.6777  14.3119  17.2562  17.6129  20.5134
    21.1747  21.7303  32.7416

          k =-0.1000-0.3000 0.4000 (  1197 PWs)   bands (ev):

   -36.1159 -12.7194 -11.9989 -11.6851  14.7587  16.7465  18.1928  20.9436
    21.9639  23.1082  31.1332

          k =-0.1000 0.6000-0.5000 (  1201 PWs)   bands (ev):

   -36.0719 -12.9252 -12.0895 -11.6890  14.6186  16.4750  19.3182  21.2288
    22.2851  24.7208  29.9943

          k =-0.2000-0.2000 0.4000 (  1194 PWs)   bands (ev):

   -36.1234 -12.6213 -12.0011 -11.7367  15.1967  16.8532  17.4082  20.5807
    22.0316  23.1616  31.7353

          k =-0.2000 0.7000-0.5000 (  1197 PWs)   bands (ev):

   -36.0721 -12.7799 -12.1808 -11.7609  15.3786  16.6377  17.9488  21.0019
    22.1664  25.3158  30.0763

          k =-0.2000 0.6000-0.4000 (  1199 PWs)   bands (ev):

   -36.0524 -12.8310 -12.2606 -11.7675  15.2850  16.6011  18.3553  21.1963
    22.3474  26.5301  28.9953

          k =-0.3000 0.7000-0.4000 (  1195 PWs)   bands (ev):

   -36.0450 -12.6966 -12.4298 -11.7951  15.7858  16.8178  17.5583  21.4488
    22.0423  27.6794  28.6038

          k = 0.0000 0.0000 0.2000 (  1213 PWs)   bands (ev):

   -36.2752 -11.8140 -11.7126 -11.7126  12.9056  18.3411  18.3411  18.7648
    20.1816  21.7164  33.2881

          k = 0.0000-0.1000 0.3000 (  1194 PWs)   bands (ev):

   -36.2154 -12.1260 -11.8249 -11.7370  13.8834  17.9199  18.0767  19.6247
    19.7842  22.0209  33.5785

          k = 0.0000-0.2000 0.4000 (  1195 PWs)   bands (ev):

   -36.1405 -12.5257 -11.9605 -11.7360  14.7313  17.3468  17.7498  20.1267
    21.4951  22.2640  31.8909

          k = 0.0000-0.3000 0.5000 (  1192 PWs)   bands (ev):

   -36.0791 -12.8384 -12.0678 -11.7338  14.7457  16.9297  18.3506  20.6692
    22.8412  23.3778  30.6234

          k = 0.0000 0.6000-0.4000 (  1204 PWs)   bands (ev):

   -36.0554 -12.9553 -12.1082 -11.7329  14.6192  16.7800  18.8594  20.6037
    23.5408  24.3522  29.9145

          k =-0.1000-0.1000 0.4000 (  1205 PWs)   bands (ev):

   -36.1499 -12.3928 -11.9585 -11.8053  14.8370  17.3769  17.9626  19.4410
    20.9798  22.4049  32.5751

          k =-0.1000-0.2000 0.5000 (  1203 PWs)   bands (ev):

   -36.0836 -12.6784 -12.1156 -11.8173  15.3347  16.9243  17.8333  20.0671
    22.1863  23.4491  31.2529

          k =-0.1000 0.7000-0.4000 (  1196 PWs)   bands (ev):

   -36.0422 -12.8543 -12.2146 -11.8170  15.1643  17.0603  17.8359  20.3544
    23.0380  25.3237  29.8266

          k =-0.2000 0.2000 0.2000 (  1196 PWs)   bands (ev):

   -36.2035 -12.3191 -11.7323 -11.7323  14.1770  17.2916  17.2916  21.1651
    21.1651  21.2023  33.8298

          k =-0.2000 0.8000-0.4000 (  1210 PWs)   bands (ev):

   -36.0372 -12.7432 -12.3373 -11.8428  15.9404  16.3752  17.6647  20.6417
    22.2443  25.8786  29.9307

          k =-0.2000 0.7000-0.3000 (  1200 PWs)   bands (ev):

   -36.0194 -12.7338 -12.4618 -11.8464  15.9355  16.8549  17.0105  21.0925
    22.3990  27.7996  28.7076

          k =-0.3000 0.3000 0.2000 (  1199 PWs)   bands (ev):

   -36.1385 -12.6062 -11.9062 -11.7502  15.1710  16.7624  17.1499  21.2326
    21.6308  23.1897  32.4127

          k = 0.6000-0.6000 0.2000 (  1192 PWs)   bands (ev):

   -36.0854 -12.8005 -12.0790 -11.7647  15.2085  16.4372  18.2859  21.4916
    21.9509  25.1324  30.4351

          k = 0.6000-0.7000 0.3000 (  1189 PWs)   bands (ev):

   -36.0906 -12.7220 -12.0536 -11.8496  15.8987  16.6132  17.1058  21.5010
    21.9486  25.3940  30.7998

          k = 0.5000-0.5000 0.2000 (  1192 PWs)   bands (ev):

   -36.0650 -12.8677 -12.1506 -11.7703  15.0820  16.3286  19.1093  21.5962
    22.0782  26.0439  29.1977

          k = 0.5000-0.6000 0.3000 (  1197 PWs)   bands (ev):

   -36.0609 -12.7199 -12.2473 -11.8843  15.8256  16.5448  17.9636  21.7403
    22.0993  27.1690  28.7343

          k = 0.4000-0.6000 0.4000 (  1199 PWs)   bands (ev):

   -36.0515 -12.5036 -12.5036 -11.9261  15.9717  17.2859  17.2859  21.9946
    21.9946  27.9139  29.1647

          k = 0.0000 0.0000 0.4000 (  1204 PWs)   bands (ev):

   -36.1600 -12.1981 -11.9422 -11.9422  14.7426  17.9926  18.5796  18.5796
    19.8197  22.5045  33.3324

          k = 0.0000-0.1000 0.5000 (  1204 PWs)   bands (ev):

   -36.0908 -12.4805 -12.0837 -11.9887  15.4970  16.9217  18.4270  19.3265
    21.2208  22.8338  32.2621

          k = 0.0000-0.2000 0.6000 (  1197 PWs)   bands (ev):

   -36.0341 -12.7473 -12.1956 -11.9781  15.4114  16.8279  18.1122  19.7680
    23.1198  24.0042  31.0243

          k = 0.0000 0.7000-0.3000 (  1192 PWs)   bands (ev):

   -36.0122 -12.8496 -12.2377 -11.9717  15.2050  17.0285  17.9889  19.6849
    24.1499  25.3761  29.4957

          k =-0.1000-0.1000 0.6000 (  1194 PWs)   bands (ev):

   -36.0310 -12.6318 -12.2614 -12.0442  15.9005  16.1035  18.5679  19.9365
    22.1250  23.9596  31.7733

          k =-0.1000 0.8000-0.3000 (  1194 PWs)   bands (ev):

   -35.9937 -12.7399 -12.3892 -12.0404  15.5438  16.2246  18.1677  20.5236
    23.0706  26.2668  29.6770

          k =-0.2000 0.8000-0.2000 (  1207 PWs)   bands (ev):

   -35.9783 -12.6111 -12.6111 -12.0418  15.8100  15.8100  17.8752  22.1213
    22.1213  28.6730  29.0940

          k = 0.6000-0.6000 0.4000 (  1196 PWs)   bands (ev):

   -36.0641 -12.6602 -12.0959 -12.0959  16.5614  16.5614  17.1568  22.0100
    22.0100  27.4235  28.9844

          k = 0.5000-0.5000 0.4000 (  1194 PWs)   bands (ev):

   -36.0540 -12.5316 -12.2976 -12.1120  16.5657  16.6191  17.5004  22.0730
    22.1536  27.7665  28.7505

          k = 0.0000 0.0000 0.6000 (  1192 PWs)   bands (ev):

   -36.0287 -12.4812 -12.2322 -12.2322  15.8139  16.0186  19.6581  19.6581
    21.3662  23.2395  33.2264

          k = 0.0000-0.1000 0.7000 (  1201 PWs)   bands (ev):

   -35.9779 -12.6346 -12.3494 -12.2675  15.3364  15.6573  19.8984  20.2658
    22.8516  24.6308  31.2653

          k = 0.0000 0.8000-0.2000 (  1208 PWs)   bands (ev):

   -35.9584 -12.7160 -12.3935 -12.2564  15.0891  15.5598  19.8591  20.3634
    23.9110  26.5722  28.8356

          k =-0.1000 0.9000-0.2000 (  1209 PWs)   bands (ev):

   -35.9449 -12.6388 -12.5099 -12.2913  15.0105  15.1889  19.9414  21.8292
    23.1351  26.7407  29.3237

          k = 0.0000 0.0000 0.8000 (  1212 PWs)   bands (ev):

     ethr =  2.24E-12,  avg # of iterations =  2.7
   -35.9321 -12.5649 -12.4707 -12.4707  14.7311  14.9387  21.7123  21.7123
    22.9349  25.4112  29.9558

          k = 0.0000 0.9000-0.1000 (  1212 PWs)   bands (ev):

   -35.9145 -12.6054 -12.5163 -12.4791  14.5349  14.6149  22.1186  22.3151
    23.7261  27.0357  27.9043

          k = 0.0000 0.0000-1.0000 (  1168 PWs)   bands (ev):

   -35.8976 -12.5625 -12.5625 -12.5625  14.2888  14.2888  23.6572  23.6572
    23.6572  27.1221  27.1221

     the Fermi energy is    18.0743 ev

!    total energy              =    -117.93156228 Ry
     estimated scf accuracy    <          4.3E-13 Ry
     smearing contrib. (-TS)   =      -0.00075803 Ry
     internal energy E=F+TS    =    -117.93080425 Ry

     The total energy is F=E-TS. E is the sum of the following terms:
     one-electron contribution =     -15.73624591 Ry
     hartree contribution      =      14.89675779 Ry
     xc contribution           =     -18.44970379 Ry
     ewald contribution        =     -98.64161234 Ry

     convergence has been achieved in  10 iterations

     Writing all to output data dir ./tmp/Nb_k10.save/

     init_run     :      0.39s CPU      0.40s WALL (       1 calls)
     electrons    :      6.82s CPU      7.25s WALL (       1 calls)

     Called by init_run:
     wfcinit      :      0.25s CPU      0.26s WALL (       1 calls)
     potinit      :      0.01s CPU      0.01s WALL (       1 calls)
     hinit0       :      0.12s CPU      0.12s WALL (       1 calls)

     Called by electrons:
     c_bands      :      5.57s CPU      5.82s WALL (      11 calls)
     sum_band     :      1.12s CPU      1.25s WALL (      11 calls)
     v_of_rho     :      0.06s CPU      0.08s WALL (      11 calls)
     newd         :      0.07s CPU      0.10s WALL (      11 calls)
     mix_rho      :      0.01s CPU      0.02s WALL (      11 calls)

     Called by c_bands:
     init_us_2    :      0.14s CPU      0.15s WALL (    1081 calls)
     init_us_2:cp :      0.14s CPU      0.15s WALL (    1081 calls)
     cegterg      :      5.36s CPU      5.60s WALL (     517 calls)

     Called by *egterg:
     cdiaghg      :      0.12s CPU      0.13s WALL (    1805 calls)
     h_psi        :      4.84s CPU      5.04s WALL (    1899 calls)
     s_psi        :      0.09s CPU      0.10s WALL (    1899 calls)
     g_psi        :      0.02s CPU      0.02s WALL (    1335 calls)

     Called by h_psi:
     h_psi:calbec :      0.11s CPU      0.12s WALL (    1899 calls)
     vloc_psi     :      4.62s CPU      4.80s WALL (    1899 calls)
     add_vuspsi   :      0.10s CPU      0.10s WALL (    1899 calls)

     General routines
     calbec       :      0.15s CPU      0.16s WALL (    2416 calls)
     fft          :      0.03s CPU      0.03s WALL (     122 calls)
     ffts         :      0.00s CPU      0.00s WALL (      11 calls)
     fftw         :      4.99s CPU      5.24s WALL (   35277 calls)


     PWSCF        :      7.26s CPU      7.73s WALL


   This run was terminated on:  21:11:37   6Mar2026            

=------------------------------------------------------------------------------=
   JOB DONE.
=------------------------------------------------------------------------------=
Note: The following floating-point exceptions are signalling: IEEE_INVALID_FLAG IEEE_DIVIDE_BY_ZERO IEEE_UNDERFLOW_FLAG

     init_run     :      0.39s CPU      0.40s WALL (       1 calls)
     electrons    :      6.84s CPU      7.25s WALL (       1 calls)

     Called by init_run:
     wfcinit      :      0.25s CPU      0.26s WALL (       1 calls)
     potinit      :      0.01s CPU      0.01s WALL (       1 calls)
     hinit0       :      0.12s CPU      0.12s WALL (       1 calls)

     Called by electrons:
     c_bands      :      5.58s CPU      5.82s WALL (      11 calls)
     sum_band     :      1.13s CPU      1.26s WALL (      11 calls)
     v_of_rho     :      0.06s CPU      0.09s WALL (      11 calls)
     newd         :      0.07s CPU      0.08s WALL (      11 calls)
     mix_rho      :      0.01s CPU      0.01s WALL (      11 calls)

     Called by c_bands:
     init_us_2    :      0.14s CPU      0.15s WALL (    1081 calls)
     init_us_2:cp :      0.14s CPU      0.15s WALL (    1081 calls)
     cegterg      :      5.37s CPU      5.59s WALL (     517 calls)

     Called by *egterg:
     cdiaghg      :      0.12s CPU      0.12s WALL (    1805 calls)
     h_psi        :      4.86s CPU      5.04s WALL (    1899 calls)
     s_psi        :      0.09s CPU      0.10s WALL (    1899 calls)
     g_psi        :      0.01s CPU      0.02s WALL (    1335 calls)

     Called by h_psi:
     h_psi:calbec :      0.11s CPU      0.12s WALL (    1899 calls)
     vloc_psi     :      4.64s CPU      4.81s WALL (    1899 calls)
     add_vuspsi   :      0.10s CPU      0.10s WALL (    1899 calls)

     General routines
     calbec       :      0.15s CPU      0.16s WALL (    2416 calls)
     fft          :      0.03s CPU      0.04s WALL (     122 calls)
     ffts         :      0.00s CPU      0.00s WALL (      11 calls)
     fftw         :      5.00s CPU      5.22s WALL (   35277 calls)


     PWSCF        :      7.29s CPU      7.73s WALL


   This run was terminated on:  21:11:37   6Mar2026            

=------------------------------------------------------------------------------=
   JOB DONE.
=------------------------------------------------------------------------------=
Note: The following floating-point exceptions are signalling: IEEE_INVALID_FLAG IEEE_DIVIDE_BY_ZERO IEEE_UNDERFLOW_FLAG

     total cpu time spent up to now is        7.8 secs

     End of self-consistent calculation

          k = 0.0000 0.0000 0.0000 (  1205 PWs)   bands (ev):

   -36.3212 -11.6264 -11.6264 -11.6264  12.1107  18.3958  18.3958  18.3958
    21.3133  21.3133  32.2199

          k = 0.0000-0.1000 0.1000 (  1203 PWs)   bands (ev):

   -36.2979 -11.7668 -11.6691 -11.6275  12.5157  18.1491  18.3224  18.7901
    20.9750  21.3172  32.5325

          k = 0.0000-0.2000 0.2000 (  1194 PWs)   bands (ev):

   -36.2364 -12.1236 -11.7794 -11.6307  13.5284  17.5714  18.0128  19.9239
    20.7042  21.3829  32.7796

          k = 0.0000-0.3000 0.3000 (  1198 PWs)   bands (ev):

   -36.1594 -12.5453 -11.9126 -11.6347  14.3772  16.9573  18.1254  20.9837
    21.5861  21.6280  31.6693

          k = 0.0000-0.4000 0.4000 (  1208 PWs)   bands (ev):

   -36.0962 -12.8729 -12.0181 -11.6381  14.4085  16.5191  19.3767  21.3421
    21.8783  23.4826  30.2359

          k = 0.0000 0.5000-0.5000 (  1204 PWs)   bands (ev):

   -36.0718 -12.9951 -12.0579 -11.6394  14.3008  16.3627  20.3273  21.3494
    22.0324  24.4319  30.1601

          k =-0.1000-0.1000 0.2000 (  1195 PWs)   bands (ev):

   -36.2555 -12.0116 -11.7180 -11.6611  13.2439  17.8449  17.9441  19.6346
    20.5659  21.4710  33.1031

          k =-0.1000-0.2000 0.3000 (  1192 PWs)   bands (ev):

   -36.1861 -12.3753 -11.8523 -11.6777  14.3119  17.2562  17.6129  20.5134
    21.1747  21.7303  32.7416

          k =-0.1000-0.3000 0.4000 (  1197 PWs)   bands (ev):

   -36.1159 -12.7194 -11.9989 -11.6851  14.7587  16.7465  18.1928  20.9436
    21.9639  23.1082  31.1332

          k =-0.1000 0.6000-0.5000 (  1201 PWs)   bands (ev):

   -36.0719 -12.9252 -12.0895 -11.6890  14.6186  16.4750  19.3182  21.2288
    22.2851  24.7208  29.9943

          k =-0.2000-0.2000 0.4000 (  1194 PWs)   bands (ev):

   -36.1234 -12.6213 -12.0011 -11.7367  15.1967  16.8532  17.4082  20.5807
    22.0316  23.1616  31.7353

          k =-0.2000 0.7000-0.5000 (  1197 PWs)   bands (ev):

   -36.0721 -12.7799 -12.1808 -11.7609  15.3786  16.6377  17.9488  21.0019
    22.1664  25.3158  30.0763

          k =-0.2000 0.6000-0.4000 (  1199 PWs)   bands (ev):

   -36.0524 -12.8310 -12.2606 -11.7675  15.2850  16.6011  18.3553  21.1963
    22.3474  26.5301  28.9953

          k =-0.3000 0.7000-0.4000 (  1195 PWs)   bands (ev):

   -36.0450 -12.6966 -12.4298 -11.7951  15.7858  16.8178  17.5583  21.4488
    22.0423  27.6794  28.6038

          k = 0.0000 0.0000 0.2000 (  1213 PWs)   bands (ev):

   -36.2752 -11.8140 -11.7126 -11.7126  12.9056  18.3411  18.3411  18.7648
    20.1816  21.7164  33.2881

          k = 0.0000-0.1000 0.3000 (  1194 PWs)   bands (ev):

   -36.2154 -12.1260 -11.8249 -11.7370  13.8834  17.9199  18.0767  19.6247
    19.7842  22.0209  33.5785

          k = 0.0000-0.2000 0.4000 (  1195 PWs)   bands (ev):

   -36.1405 -12.5257 -11.9605 -11.7360  14.7313  17.3468  17.7498  20.1267
    21.4951  22.2640  31.8909

          k = 0.0000-0.3000 0.5000 (  1192 PWs)   bands (ev):

   -36.0791 -12.8384 -12.0678 -11.7338  14.7457  16.9297  18.3506  20.6692
    22.8412  23.3778  30.6234

          k = 0.0000 0.6000-0.4000 (  1204 PWs)   bands (ev):

   -36.0554 -12.9553 -12.1082 -11.7329  14.6192  16.7800  18.8594  20.6037
    23.5408  24.3522  29.9145

          k =-0.1000-0.1000 0.4000 (  1205 PWs)   bands (ev):

   -36.1499 -12.3928 -11.9585 -11.8053  14.8370  17.3769  17.9626  19.4410
    20.9798  22.4049  32.5751

          k =-0.1000-0.2000 0.5000 (  1203 PWs)   bands (ev):

   -36.0836 -12.6784 -12.1156 -11.8173  15.3347  16.9243  17.8333  20.0671
    22.1863  23.4491  31.2529

          k =-0.1000 0.7000-0.4000 (  1196 PWs)   bands (ev):

   -36.0422 -12.8543 -12.2146 -11.8170  15.1643  17.0603  17.8359  20.3544
    23.0380  25.3237  29.8266

          k =-0.2000 0.2000 0.2000 (  1196 PWs)   bands (ev):

   -36.2035 -12.3191 -11.7323 -11.7323  14.1770  17.2916  17.2916  21.1651
    21.1651  21.2023  33.8298

          k =-0.2000 0.8000-0.4000 (  1210 PWs)   bands (ev):

   -36.0372 -12.7432 -12.3373 -11.8428  15.9404  16.3752  17.6647  20.6417
    22.2443  25.8786  29.9307

          k =-0.2000 0.7000-0.3000 (  1200 PWs)   bands (ev):

   -36.0194 -12.7338 -12.4618 -11.8464  15.9355  16.8549  17.0105  21.0925
    22.3990  27.7996  28.7076

          k =-0.3000 0.3000 0.2000 (  1199 PWs)   bands (ev):

   -36.1385 -12.6062 -11.9062 -11.7502  15.1710  16.7624  17.1499  21.2326
    21.6308  23.1897  32.4127

          k = 0.6000-0.6000 0.2000 (  1192 PWs)   bands (ev):

   -36.0854 -12.8005 -12.0790 -11.7647  15.2085  16.4372  18.2859  21.4916
    21.9509  25.1324  30.4351

          k = 0.6000-0.7000 0.3000 (  1189 PWs)   bands (ev):

   -36.0906 -12.7220 -12.0536 -11.8496  15.8987  16.6132  17.1058  21.5010
    21.9486  25.3940  30.7998

          k = 0.5000-0.5000 0.2000 (  1192 PWs)   bands (ev):

   -36.0650 -12.8677 -12.1506 -11.7703  15.0820  16.3286  19.1093  21.5962
    22.0782  26.0439  29.1977

          k = 0.5000-0.6000 0.3000 (  1197 PWs)   bands (ev):

   -36.0609 -12.7199 -12.2473 -11.8843  15.8256  16.5448  17.9636  21.7403
    22.0993  27.1690  28.7343

          k = 0.4000-0.6000 0.4000 (  1199 PWs)   bands (ev):

   -36.0515 -12.5036 -12.5036 -11.9261  15.9717  17.2859  17.2859  21.9946
    21.9946  27.9139  29.1647

          k = 0.0000 0.0000 0.4000 (  1204 PWs)   bands (ev):

   -36.1600 -12.1981 -11.9422 -11.9422  14.7426  17.9926  18.5796  18.5796
    19.8197  22.5045  33.3324

          k = 0.0000-0.1000 0.5000 (  1204 PWs)   bands (ev):

   -36.0908 -12.4805 -12.0837 -11.9887  15.4970  16.9217  18.4270  19.3265
    21.2208  22.8338  32.2621

          k = 0.0000-0.2000 0.6000 (  1197 PWs)   bands (ev):

   -36.0341 -12.7473 -12.1956 -11.9781  15.4114  16.8279  18.1122  19.7680
    23.1198  24.0042  31.0243

          k = 0.0000 0.7000-0.3000 (  1192 PWs)   bands (ev):

   -36.0122 -12.8496 -12.2377 -11.9717  15.2050  17.0285  17.9889  19.6849
    24.1499  25.3761  29.4957

          k =-0.1000-0.1000 0.6000 (  1194 PWs)   bands (ev):

   -36.0310 -12.6318 -12.2614 -12.0442  15.9005  16.1035  18.5679  19.9365
    22.1250  23.9596  31.7733

          k =-0.1000 0.8000-0.3000 (  1194 PWs)   bands (ev):

   -35.9937 -12.7399 -12.3892 -12.0404  15.5438  16.2246  18.1677  20.5236
    23.0706  26.2668  29.6770

          k =-0.2000 0.8000-0.2000 (  1207 PWs)   bands (ev):

   -35.9783 -12.6111 -12.6111 -12.0418  15.8100  15.8100  17.8752  22.1213
    22.1213  28.6730  29.0940

          k = 0.6000-0.6000 0.4000 (  1196 PWs)   bands (ev):

   -36.0641 -12.6602 -12.0959 -12.0959  16.5614  16.5614  17.1568  22.0100
    22.0100  27.4235  28.9844

          k = 0.5000-0.5000 0.4000 (  1194 PWs)   bands (ev):

   -36.0540 -12.5316 -12.2976 -12.1120  16.5657  16.6191  17.5004  22.0730
    22.1536  27.7665  28.7505

          k = 0.0000 0.0000 0.6000 (  1192 PWs)   bands (ev):

   -36.0287 -12.4812 -12.2322 -12.2322  15.8139  16.0186  19.6581  19.6581
    21.3662  23.2395  33.2264

          k = 0.0000-0.1000 0.7000 (  1201 PWs)   bands (ev):

   -35.9779 -12.6346 -12.3494 -12.2675  15.3364  15.6573  19.8984  20.2658
    22.8516  24.6308  31.2653

          k = 0.0000 0.8000-0.2000 (  1208 PWs)   bands (ev):

   -35.9584 -12.7160 -12.3935 -12.2564  15.0891  15.5598  19.8591  20.3634
    23.9110  26.5722  28.8356

          k =-0.1000 0.9000-0.2000 (  1209 PWs)   bands (ev):

   -35.9449 -12.6388 -12.5099 -12.2913  15.0105  15.1889  19.9414  21.8292
    23.1351  26.7407  29.3237

          k = 0.0000 0.0000 0.8000 (  1212 PWs)   bands (ev):

   -35.9321 -12.5649 -12.4707 -12.4707  14.7311  14.9387  21.7123  21.7123
    22.9349  25.4112  29.9558

          k = 0.0000 0.9000-0.1000 (  1212 PWs)   bands (ev):

   -35.9145 -12.6054 -12.5163 -12.4791  14.5349  14.6149  22.1186  22.3151
    23.7261  27.0357  27.9043

          k = 0.0000 0.0000-1.0000 (  1168 PWs)   bands (ev):

   -35.8976 -12.5625 -12.5625 -12.5625  14.2888  14.2888  23.6572  23.6572
    23.6572  27.1221  27.1221

     the Fermi energy is    18.0743 ev

!    total energy              =    -117.93156228 Ry
     estimated scf accuracy    <          4.3E-13 Ry
     smearing contrib. (-TS)   =      -0.00075803 Ry
     internal energy E=F+TS    =    -117.93080425 Ry

     The total energy is F=E-TS. E is the sum of the following terms:
     one-electron contribution =     -15.73624591 Ry
     hartree contribution      =      14.89675779 Ry
     xc contribution           =     -18.44970379 Ry
     ewald contribution        =     -98.64161234 Ry

     convergence has been achieved in  10 iterations

     Writing all to output data dir ./tmp/Nb_k10.save/

     init_run     :      0.39s CPU      0.40s WALL (       1 calls)
     electrons    :      6.83s CPU      7.31s WALL (       1 calls)

     Called by init_run:
     wfcinit      :      0.25s CPU      0.26s WALL (       1 calls)
     potinit      :      0.01s CPU      0.01s WALL (       1 calls)
     hinit0       :      0.12s CPU      0.12s WALL (       1 calls)

     Called by electrons:
     c_bands      :      5.59s CPU      5.93s WALL (      11 calls)
     sum_band     :      1.12s CPU      1.25s WALL (      11 calls)
     v_of_rho     :      0.06s CPU      0.06s WALL (      11 calls)
     newd         :      0.07s CPU      0.08s WALL (      11 calls)
     mix_rho      :      0.01s CPU      0.01s WALL (      11 calls)

     Called by c_bands:
     init_us_2    :      0.14s CPU      0.15s WALL (    1081 calls)
     init_us_2:cp :      0.14s CPU      0.15s WALL (    1081 calls)
     cegterg      :      5.38s CPU      5.70s WALL (     517 calls)

     Called by *egterg:
     cdiaghg      :      0.12s CPU      0.13s WALL (    1805 calls)
     h_psi        :      4.86s CPU      5.12s WALL (    1899 calls)
     s_psi        :      0.09s CPU      0.10s WALL (    1899 calls)
     g_psi        :      0.02s CPU      0.02s WALL (    1335 calls)

     Called by h_psi:
     h_psi:calbec :      0.11s CPU      0.12s WALL (    1899 calls)
     vloc_psi     :      4.63s CPU      4.88s WALL (    1899 calls)
     add_vuspsi   :      0.10s CPU      0.10s WALL (    1899 calls)

     General routines
     calbec       :      0.15s CPU      0.16s WALL (    2416 calls)
     fft          :      0.03s CPU      0.03s WALL (     122 calls)
     ffts         :      0.00s CPU      0.00s WALL (      11 calls)
     fftw         :      5.00s CPU      5.32s WALL (   35277 calls)


     PWSCF        :      7.28s CPU      7.78s WALL


   This run was terminated on:  21:11:37   6Mar2026            

=------------------------------------------------------------------------------=
   JOB DONE.
=------------------------------------------------------------------------------=
Note: The following floating-point exceptions are signalling: IEEE_INVALID_FLAG IEEE_DIVIDE_BY_ZERO IEEE_UNDERFLOW_FLAG

     total cpu time spent up to now is        7.8 secs

     End of self-consistent calculation

          k = 0.0000 0.0000 0.0000 (  1205 PWs)   bands (ev):

   -36.3212 -11.6264 -11.6264 -11.6264  12.1107  18.3958  18.3958  18.3958
    21.3133  21.3133  32.2199

          k = 0.0000-0.1000 0.1000 (  1203 PWs)   bands (ev):

   -36.2979 -11.7668 -11.6691 -11.6275  12.5157  18.1491  18.3224  18.7901
    20.9750  21.3172  32.5325

          k = 0.0000-0.2000 0.2000 (  1194 PWs)   bands (ev):

   -36.2364 -12.1236 -11.7794 -11.6307  13.5284  17.5714  18.0128  19.9239
    20.7042  21.3829  32.7796

          k = 0.0000-0.3000 0.3000 (  1198 PWs)   bands (ev):

   -36.1594 -12.5453 -11.9126 -11.6347  14.3772  16.9573  18.1254  20.9837
    21.5861  21.6280  31.6693

          k = 0.0000-0.4000 0.4000 (  1208 PWs)   bands (ev):

   -36.0962 -12.8729 -12.0181 -11.6381  14.4085  16.5191  19.3767  21.3421
    21.8783  23.4826  30.2359

          k = 0.0000 0.5000-0.5000 (  1204 PWs)   bands (ev):

   -36.0718 -12.9951 -12.0579 -11.6394  14.3008  16.3627  20.3273  21.3494
    22.0324  24.4319  30.1601

          k =-0.1000-0.1000 0.2000 (  1195 PWs)   bands (ev):

   -36.2555 -12.0116 -11.7180 -11.6611  13.2439  17.8449  17.9441  19.6346
    20.5659  21.4710  33.1031

          k =-0.1000-0.2000 0.3000 (  1192 PWs)   bands (ev):

   -36.1861 -12.3753 -11.8523 -11.6777  14.3119  17.2562  17.6129  20.5134
    21.1747  21.7303  32.7416

          k =-0.1000-0.3000 0.4000 (  1197 PWs)   bands (ev):

   -36.1159 -12.7194 -11.9989 -11.6851  14.7587  16.7465  18.1928  20.9436
    21.9639  23.1082  31.1332

          k =-0.1000 0.6000-0.5000 (  1201 PWs)   bands (ev):

   -36.0719 -12.9252 -12.0895 -11.6890  14.6186  16.4750  19.3182  21.2288
    22.2851  24.7208  29.9943

          k =-0.2000-0.2000 0.4000 (  1194 PWs)   bands (ev):

   -36.1234 -12.6213 -12.0011 -11.7367  15.1967  16.8532  17.4082  20.5807
    22.0316  23.1616  31.7353

          k =-0.2000 0.7000-0.5000 (  1197 PWs)   bands (ev):

   -36.0721 -12.7799 -12.1808 -11.7609  15.3786  16.6377  17.9488  21.0019
    22.1664  25.3158  30.0763

          k =-0.2000 0.6000-0.4000 (  1199 PWs)   bands (ev):

   -36.0524 -12.8310 -12.2606 -11.7675  15.2850  16.6011  18.3553  21.1963
    22.3474  26.5301  28.9953

          k =-0.3000 0.7000-0.4000 (  1195 PWs)   bands (ev):

   -36.0450 -12.6966 -12.4298 -11.7951  15.7858  16.8178  17.5583  21.4488
    22.0423  27.6794  28.6038

          k = 0.0000 0.0000 0.2000 (  1213 PWs)   bands (ev):

   -36.2752 -11.8140 -11.7126 -11.7126  12.9056  18.3411  18.3411  18.7648
    20.1816  21.7164  33.2881

          k = 0.0000-0.1000 0.3000 (  1194 PWs)   bands (ev):

   -36.2154 -12.1260 -11.8249 -11.7370  13.8834  17.9199  18.0767  19.6247
    19.7842  22.0209  33.5785

          k = 0.0000-0.2000 0.4000 (  1195 PWs)   bands (ev):

   -36.1405 -12.5257 -11.9605 -11.7360  14.7313  17.3468  17.7498  20.1267
    21.4951  22.2640  31.8909

          k = 0.0000-0.3000 0.5000 (  1192 PWs)   bands (ev):

   -36.0791 -12.8384 -12.0678 -11.7338  14.7457  16.9297  18.3506  20.6692
    22.8412  23.3778  30.6234

          k = 0.0000 0.6000-0.4000 (  1204 PWs)   bands (ev):

   -36.0554 -12.9553 -12.1082 -11.7329  14.6192  16.7800  18.8594  20.6037
    23.5408  24.3522  29.9145

          k =-0.1000-0.1000 0.4000 (  1205 PWs)   bands (ev):

   -36.1499 -12.3928 -11.9585 -11.8053  14.8370  17.3769  17.9626  19.4410
    20.9798  22.4049  32.5751

          k =-0.1000-0.2000 0.5000 (  1203 PWs)   bands (ev):

   -36.0836 -12.6784 -12.1156 -11.8173  15.3347  16.9243  17.8333  20.0671
    22.1863  23.4491  31.2529

          k =-0.1000 0.7000-0.4000 (  1196 PWs)   bands (ev):

   -36.0422 -12.8543 -12.2146 -11.8170  15.1643  17.0603  17.8359  20.3544
    23.0380  25.3237  29.8266

          k =-0.2000 0.2000 0.2000 (  1196 PWs)   bands (ev):

   -36.2035 -12.3191 -11.7323 -11.7323  14.1770  17.2916  17.2916  21.1651
    21.1651  21.2023  33.8298

          k =-0.2000 0.8000-0.4000 (  1210 PWs)   bands (ev):

   -36.0372 -12.7432 -12.3373 -11.8428  15.9404  16.3752  17.6647  20.6417
    22.2443  25.8786  29.9307

          k =-0.2000 0.7000-0.3000 (  1200 PWs)   bands (ev):

   -36.0194 -12.7338 -12.4618 -11.8464  15.9355  16.8549  17.0105  21.0925
    22.3990  27.7996  28.7076

          k =-0.3000 0.3000 0.2000 (  1199 PWs)   bands (ev):

   -36.1385 -12.6062 -11.9062 -11.7502  15.1710  16.7624  17.1499  21.2326
    21.6308  23.1897  32.4127

          k = 0.6000-0.6000 0.2000 (  1192 PWs)   bands (ev):

   -36.0854 -12.8005 -12.0790 -11.7647  15.2085  16.4372  18.2859  21.4916
    21.9509  25.1324  30.4351

          k = 0.6000-0.7000 0.3000 (  1189 PWs)   bands (ev):

   -36.0906 -12.7220 -12.0536 -11.8496  15.8987  16.6132  17.1058  21.5010
    21.9486  25.3940  30.7998

          k = 0.5000-0.5000 0.2000 (  1192 PWs)   bands (ev):

   -36.0650 -12.8677 -12.1506 -11.7703  15.0820  16.3286  19.1093  21.5962
    22.0782  26.0439  29.1977

          k = 0.5000-0.6000 0.3000 (  1197 PWs)   bands (ev):

   -36.0609 -12.7199 -12.2473 -11.8843  15.8256  16.5448  17.9636  21.7403
    22.0993  27.1690  28.7343

          k = 0.4000-0.6000 0.4000 (  1199 PWs)   bands (ev):

   -36.0515 -12.5036 -12.5036 -11.9261  15.9717  17.2859  17.2859  21.9946
    21.9946  27.9139  29.1647

          k = 0.0000 0.0000 0.4000 (  1204 PWs)   bands (ev):

   -36.1600 -12.1981 -11.9422 -11.9422  14.7426  17.9926  18.5796  18.5796
    19.8197  22.5045  33.3324

          k = 0.0000-0.1000 0.5000 (  1204 PWs)   bands (ev):

   -36.0908 -12.4805 -12.0837 -11.9887  15.4970  16.9217  18.4270  19.3265
    21.2208  22.8338  32.2621

          k = 0.0000-0.2000 0.6000 (  1197 PWs)   bands (ev):

   -36.0341 -12.7473 -12.1956 -11.9781  15.4114  16.8279  18.1122  19.7680
    23.1198  24.0042  31.0243

          k = 0.0000 0.7000-0.3000 (  1192 PWs)   bands (ev):

   -36.0122 -12.8496 -12.2377 -11.9717  15.2050  17.0285  17.9889  19.6849
    24.1499  25.3761  29.4957

          k =-0.1000-0.1000 0.6000 (  1194 PWs)   bands (ev):

   -36.0310 -12.6318 -12.2614 -12.0442  15.9005  16.1035  18.5679  19.9365
    22.1250  23.9596  31.7733

          k =-0.1000 0.8000-0.3000 (  1194 PWs)   bands (ev):

   -35.9937 -12.7399 -12.3892 -12.0404  15.5438  16.2246  18.1677  20.5236
    23.0706  26.2668  29.6770

          k =-0.2000 0.8000-0.2000 (  1207 PWs)   bands (ev):

   -35.9783 -12.6111 -12.6111 -12.0418  15.8100  15.8100  17.8752  22.1213
    22.1213  28.6730  29.0940

          k = 0.6000-0.6000 0.4000 (  1196 PWs)   bands (ev):

   -36.0641 -12.6602 -12.0959 -12.0959  16.5614  16.5614  17.1568  22.0100
    22.0100  27.4235  28.9844

          k = 0.5000-0.5000 0.4000 (  1194 PWs)   bands (ev):

   -36.0540 -12.5316 -12.2976 -12.1120  16.5657  16.6191  17.5004  22.0730
    22.1536  27.7665  28.7505

          k = 0.0000 0.0000 0.6000 (  1192 PWs)   bands (ev):

   -36.0287 -12.4812 -12.2322 -12.2322  15.8139  16.0186  19.6581  19.6581
    21.3662  23.2395  33.2264

          k = 0.0000-0.1000 0.7000 (  1201 PWs)   bands (ev):

   -35.9779 -12.6346 -12.3494 -12.2675  15.3364  15.6573  19.8984  20.2658
    22.8516  24.6308  31.2653

          k = 0.0000 0.8000-0.2000 (  1208 PWs)   bands (ev):

   -35.9584 -12.7160 -12.3935 -12.2564  15.0891  15.5598  19.8591  20.3634
    23.9110  26.5722  28.8356

          k =-0.1000 0.9000-0.2000 (  1209 PWs)   bands (ev):

   -35.9449 -12.6388 -12.5099 -12.2913  15.0105  15.1889  19.9414  21.8292
    23.1351  26.7407  29.3237

          k = 0.0000 0.0000 0.8000 (  1212 PWs)   bands (ev):

   -35.9321 -12.5649 -12.4707 -12.4707  14.7311  14.9387  21.7123  21.7123
    22.9349  25.4112  29.9558

          k = 0.0000 0.9000-0.1000 (  1212 PWs)   bands (ev):

   -35.9145 -12.6054 -12.5163 -12.4791  14.5349  14.6149  22.1186  22.3151
    23.7261  27.0357  27.9043

          k = 0.0000 0.0000-1.0000 (  1168 PWs)   bands (ev):

   -35.8976 -12.5625 -12.5625 -12.5625  14.2888  14.2888  23.6572  23.6572
    23.6572  27.1221  27.1221

     the Fermi energy is    18.0743 ev

!    total energy              =    -117.93156228 Ry
     estimated scf accuracy    <          4.3E-13 Ry
     smearing contrib. (-TS)   =      -0.00075803 Ry
     internal energy E=F+TS    =    -117.93080425 Ry

     The total energy is F=E-TS. E is the sum of the following terms:
     one-electron contribution =     -15.73624591 Ry
     hartree contribution      =      14.89675779 Ry
     xc contribution           =     -18.44970379 Ry
     ewald contribution        =     -98.64161234 Ry

     convergence has been achieved in  10 iterations

     Writing all to output data dir ./tmp/Nb_k10.save/

     init_run     :      0.39s CPU      0.40s WALL (       1 calls)
     electrons    :      6.89s CPU      7.37s WALL (       1 calls)

     Called by init_run:
     wfcinit      :      0.25s CPU      0.26s WALL (       1 calls)
     potinit      :      0.01s CPU      0.01s WALL (       1 calls)
     hinit0       :      0.12s CPU      0.12s WALL (       1 calls)

     Called by electrons:
     c_bands      :      5.64s CPU      5.97s WALL (      11 calls)
     sum_band     :      1.13s CPU      1.27s WALL (      11 calls)
     v_of_rho     :      0.06s CPU      0.06s WALL (      11 calls)
     newd         :      0.07s CPU      0.08s WALL (      11 calls)
     mix_rho      :      0.01s CPU      0.01s WALL (      11 calls)

     Called by c_bands:
     init_us_2    :      0.14s CPU      0.15s WALL (    1081 calls)
     init_us_2:cp :      0.14s CPU      0.15s WALL (    1081 calls)
     cegterg      :      5.43s CPU      5.74s WALL (     517 calls)

     Called by *egterg:
     cdiaghg      :      0.12s CPU      0.13s WALL (    1805 calls)
     h_psi        :      4.91s CPU      5.16s WALL (    1899 calls)
     s_psi        :      0.09s CPU      0.10s WALL (    1899 calls)
     g_psi        :      0.02s CPU      0.02s WALL (    1335 calls)

     Called by h_psi:
     h_psi:calbec :      0.11s CPU      0.12s WALL (    1899 calls)
     vloc_psi     :      4.69s CPU      4.93s WALL (    1899 calls)
     add_vuspsi   :      0.10s CPU      0.10s WALL (    1899 calls)

     General routines
     calbec       :      0.15s CPU      0.16s WALL (    2416 calls)
     fft          :      0.03s CPU      0.03s WALL (     122 calls)
     ffts         :      0.00s CPU      0.00s WALL (      11 calls)
     fftw         :      5.06s CPU      5.37s WALL (   35277 calls)


     PWSCF        :      7.34s CPU      7.85s WALL


   This run was terminated on:  21:11:37   6Mar2026            

=------------------------------------------------------------------------------=
   JOB DONE.
=------------------------------------------------------------------------------=
Note: The following floating-point exceptions are signalling: IEEE_INVALID_FLAG IEEE_DIVIDE_BY_ZERO IEEE_UNDERFLOW_FLAG
