
     Program PWSCF v.7.2 starts on  6Mar2026 at 21:27:50 

     This program is part of the open-source Quantum ESPRESSO suite
     for quantum simulation of materials; please cite
         "P. Giannozzi et al., J. Phys.:Condens. Matter 21 395502 (2009);
         "P. Giannozzi et al., J. Phys.:Condens. Matter 29 465901 (2017);
         "P. Giannozzi et al., J. Chem. Phys. 152 154105 (2020);
          URL http://www.quantum-espresso.org", 
     in publications or presentations arising from this work. More details at
     http://www.quantum-espresso.org/quote

     Serial multi-threaded version, running on    1 processor cores
     0 MiB available memory on the printing compute node when the environment starts

     Reading input from tmp_scf.in

     Program PWSCF v.7.2 starts on  6Mar2026 at 21:27:50 

     This program is part of the open-source Quantum ESPRESSO suite
     for quantum simulation of materials; please cite
         "P. Giannozzi et al., J. Phys.:Condens. Matter 21 395502 (2009);
         "P. Giannozzi et al., J. Phys.:Condens. Matter 29 465901 (2017);
         "P. Giannozzi et al., J. Chem. Phys. 152 154105 (2020);
          URL http://www.quantum-espresso.org", 
     in publications or presentations arising from this work. More details at
     http://www.quantum-espresso.org/quote

     Serial multi-threaded version, running on    1 processor cores
     0 MiB available memory on the printing compute node when the environment starts

     Reading input from tmp_scf.in

     Current dimensions of program PWSCF are:
     Max number of different atomic species (ntypx) = 10
     Max number of k-points (npk) =  40000
     Max angular momentum in pseudopotentials (lmaxx) =  4

     Program PWSCF v.7.2 starts on  6Mar2026 at 21:27:50 

     This program is part of the open-source Quantum ESPRESSO suite
     for quantum simulation of materials; please cite
         "P. Giannozzi et al., J. Phys.:Condens. Matter 21 395502 (2009);
         "P. Giannozzi et al., J. Phys.:Condens. Matter 29 465901 (2017);
         "P. Giannozzi et al., J. Chem. Phys. 152 154105 (2020);
          URL http://www.quantum-espresso.org", 
     in publications or presentations arising from this work. More details at
     http://www.quantum-espresso.org/quote

     Serial multi-threaded version, running on    1 processor cores
     0 MiB available memory on the printing compute node when the environment starts

     Reading input from tmp_scf.in

     Current dimensions of program PWSCF are:
     Max number of different atomic species (ntypx) = 10
     Max number of k-points (npk) =  40000
     Max angular momentum in pseudopotentials (lmaxx) =  4

     Program PWSCF v.7.2 starts on  6Mar2026 at 21:27:50 

     This program is part of the open-source Quantum ESPRESSO suite
     for quantum simulation of materials; please cite
         "P. Giannozzi et al., J. Phys.:Condens. Matter 21 395502 (2009);
         "P. Giannozzi et al., J. Phys.:Condens. Matter 29 465901 (2017);
         "P. Giannozzi et al., J. Chem. Phys. 152 154105 (2020);
          URL http://www.quantum-espresso.org", 
     in publications or presentations arising from this work. More details at
     http://www.quantum-espresso.org/quote

     Serial multi-threaded version, running on    1 processor cores
     0 MiB available memory on the printing compute node when the environment starts

     Reading input from tmp_scf.in

     Current dimensions of program PWSCF are:
     Max number of different atomic species (ntypx) = 10
     Max number of k-points (npk) =  40000
     Max angular momentum in pseudopotentials (lmaxx) =  4

     Current dimensions of program PWSCF are:
     Max number of different atomic species (ntypx) = 10
     Max number of k-points (npk) =  40000
     Max angular momentum in pseudopotentials (lmaxx) =  4



     G-vector sticks info
     --------------------
     sticks:   dense  smooth     PW     G-vecs:    dense   smooth      PW
     Sum         619     619    197                 9597     9597    1721

     Using Slab Decomposition



     bravais-lattice index     =            3
     lattice parameter (alat)  =       6.2350  a.u.
     unit-cell volume          =     121.1935 (a.u.)^3
     number of atoms/cell      =            1
     number of atomic types    =            1
     number of electrons       =        13.00
     number of Kohn-Sham states=           11
     kinetic-energy cutoff     =      70.0000  Ry
     charge density cutoff     =     280.0000  Ry
     scf convergence threshold =      1.0E-10
     mixing beta               =       0.7000
     number of iterations used =            8  plain     mixing
     Exchange-correlation= SLA  PW   PBE  PBE
                           (   1   4   3   4   0   0   0)

     celldm(1)=   6.235000  celldm(2)=   0.000000  celldm(3)=   0.000000
     celldm(4)=   0.000000  celldm(5)=   0.000000  celldm(6)=   0.000000

     crystal axes: (cart. coord. in units of alat)
               a(1) = (   0.500000   0.500000   0.500000 )  
               a(2) = (  -0.500000   0.500000   0.500000 )  
               a(3) = (  -0.500000  -0.500000   0.500000 )  

     reciprocal axes: (cart. coord. in units 2 pi/alat)
               b(1) = (  1.000000  0.000000  1.000000 )  
               b(2) = ( -1.000000  1.000000  0.000000 )  
               b(3) = (  0.000000 -1.000000  1.000000 )  


     PseudoPot. # 1 for Nb read from file:
     ./pseudo/nb_pbe_v1.uspp.F.UPF
     MD5 check sum: 573aab8a2fa660278ed4a62cd769473f
     Pseudo is Ultrasoft + core correction, Zval = 13.0
     Generated by new atomic code, or converted to UPF format
     Using radial grid of  887 points,  6 beta functions with: 
                l(1) =   0
                l(2) =   0
                l(3) =   1
                l(4) =   1
                l(5) =   2
                l(6) =   2
     Q(r) pseudized with  6 coefficients,  rinner =    1.000   1.000   1.000
                                                       1.000   1.000

     atomic species   valence    mass     pseudopotential
        Nb            13.00    92.90600     Nb( 1.00)

     48 Sym. Ops., with inversion, found



   Cartesian axes

     site n.     atom                  positions (alat units)
         1           Nb  tau(   1) = (   0.0000000   0.0000000   0.0000000  )

     number of k points=   104  Marzari-Vanderbilt smearing, width (Ry)=  0.0300

     Number of k-points >= 100: set verbosity='high' to print them.

     Dense  grid:     9597 G-vectors     FFT dimensions: (  30,  30,  30)

     Estimated max dynamical RAM per process >      56.03 MB

     G-vector sticks info
     --------------------
     sticks:   dense  smooth     PW     G-vecs:    dense   smooth      PW
     Sum         619     619    197                 9597     9597    1721

     Using Slab Decomposition



     bravais-lattice index     =            3
     lattice parameter (alat)  =       6.2350  a.u.
     unit-cell volume          =     121.1935 (a.u.)^3
     number of atoms/cell      =            1
     number of atomic types    =            1
     number of electrons       =        13.00
     number of Kohn-Sham states=           11
     kinetic-energy cutoff     =      70.0000  Ry
     charge density cutoff     =     280.0000  Ry
     scf convergence threshold =      1.0E-10
     mixing beta               =       0.7000
     number of iterations used =            8  plain     mixing
     Exchange-correlation= SLA  PW   PBE  PBE
                           (   1   4   3   4   0   0   0)

     celldm(1)=   6.235000  celldm(2)=   0.000000  celldm(3)=   0.000000
     celldm(4)=   0.000000  celldm(5)=   0.000000  celldm(6)=   0.000000

     crystal axes: (cart. coord. in units of alat)
               a(1) = (   0.500000   0.500000   0.500000 )  
               a(2) = (  -0.500000   0.500000   0.500000 )  
               a(3) = (  -0.500000  -0.500000   0.500000 )  

     reciprocal axes: (cart. coord. in units 2 pi/alat)
               b(1) = (  1.000000  0.000000  1.000000 )  
               b(2) = ( -1.000000  1.000000  0.000000 )  
               b(3) = (  0.000000 -1.000000  1.000000 )  


     PseudoPot. # 1 for Nb read from file:
     ./pseudo/nb_pbe_v1.uspp.F.UPF
     MD5 check sum: 573aab8a2fa660278ed4a62cd769473f
     Pseudo is Ultrasoft + core correction, Zval = 13.0
     Generated by new atomic code, or converted to UPF format
     Using radial grid of  887 points,  6 beta functions with: 
                l(1) =   0
                l(2) =   0
                l(3) =   1
                l(4) =   1
                l(5) =   2
                l(6) =   2
     Q(r) pseudized with  6 coefficients,  rinner =    1.000   1.000   1.000
                                                       1.000   1.000

     atomic species   valence    mass     pseudopotential
        Nb            13.00    92.90600     Nb( 1.00)

     48 Sym. Ops., with inversion, found



   Cartesian axes

     site n.     atom                  positions (alat units)
         1           Nb  tau(   1) = (   0.0000000   0.0000000   0.0000000  )

     number of k points=   104  Marzari-Vanderbilt smearing, width (Ry)=  0.0300

     Number of k-points >= 100: set verbosity='high' to print them.

     Dense  grid:     9597 G-vectors     FFT dimensions: (  30,  30,  30)

     Estimated max dynamical RAM per process >      56.03 MB


     G-vector sticks info
     --------------------
     sticks:   dense  smooth     PW     G-vecs:    dense   smooth      PW
     Sum         619     619    197                 9597     9597    1721

     Using Slab Decomposition



     bravais-lattice index     =            3
     lattice parameter (alat)  =       6.2350  a.u.
     unit-cell volume          =     121.1935 (a.u.)^3
     number of atoms/cell      =            1
     number of atomic types    =            1
     number of electrons       =        13.00
     number of Kohn-Sham states=           11
     kinetic-energy cutoff     =      70.0000  Ry
     charge density cutoff     =     280.0000  Ry
     scf convergence threshold =      1.0E-10
     mixing beta               =       0.7000
     number of iterations used =            8  plain     mixing
     Exchange-correlation= SLA  PW   PBE  PBE
                           (   1   4   3   4   0   0   0)

     celldm(1)=   6.235000  celldm(2)=   0.000000  celldm(3)=   0.000000
     celldm(4)=   0.000000  celldm(5)=   0.000000  celldm(6)=   0.000000

     crystal axes: (cart. coord. in units of alat)
               a(1) = (   0.500000   0.500000   0.500000 )  
               a(2) = (  -0.500000   0.500000   0.500000 )  
               a(3) = (  -0.500000  -0.500000   0.500000 )  

     reciprocal axes: (cart. coord. in units 2 pi/alat)
               b(1) = (  1.000000  0.000000  1.000000 )  
               b(2) = ( -1.000000  1.000000  0.000000 )  
               b(3) = (  0.000000 -1.000000  1.000000 )  


     PseudoPot. # 1 for Nb read from file:
     ./pseudo/nb_pbe_v1.uspp.F.UPF
     MD5 check sum: 573aab8a2fa660278ed4a62cd769473f
     Pseudo is Ultrasoft + core correction, Zval = 13.0
     Generated by new atomic code, or converted to UPF format
     Using radial grid of  887 points,  6 beta functions with: 
                l(1) =   0
                l(2) =   0
                l(3) =   1
                l(4) =   1
                l(5) =   2
                l(6) =   2
     Q(r) pseudized with  6 coefficients,  rinner =    1.000   1.000   1.000
                                                       1.000   1.000

     atomic species   valence    mass     pseudopotential
        Nb            13.00    92.90600     Nb( 1.00)

     48 Sym. Ops., with inversion, found



   Cartesian axes

     site n.     atom                  positions (alat units)
         1           Nb  tau(   1) = (   0.0000000   0.0000000   0.0000000  )

     number of k points=   104  Marzari-Vanderbilt smearing, width (Ry)=  0.0300

     Number of k-points >= 100: set verbosity='high' to print them.

     Dense  grid:     9597 G-vectors     FFT dimensions: (  30,  30,  30)

     Estimated max dynamical RAM per process >      56.03 MB


     G-vector sticks info
     --------------------
     sticks:   dense  smooth     PW     G-vecs:    dense   smooth      PW
     Sum         619     619    197                 9597     9597    1721

     Using Slab Decomposition



     bravais-lattice index     =            3
     lattice parameter (alat)  =       6.2350  a.u.
     unit-cell volume          =     121.1935 (a.u.)^3
     number of atoms/cell      =            1
     number of atomic types    =            1
     number of electrons       =        13.00
     number of Kohn-Sham states=           11
     kinetic-energy cutoff     =      70.0000  Ry
     charge density cutoff     =     280.0000  Ry
     scf convergence threshold =      1.0E-10
     mixing beta               =       0.7000
     number of iterations used =            8  plain     mixing
     Exchange-correlation= SLA  PW   PBE  PBE
                           (   1   4   3   4   0   0   0)

     celldm(1)=   6.235000  celldm(2)=   0.000000  celldm(3)=   0.000000
     celldm(4)=   0.000000  celldm(5)=   0.000000  celldm(6)=   0.000000

     crystal axes: (cart. coord. in units of alat)
               a(1) = (   0.500000   0.500000   0.500000 )  
               a(2) = (  -0.500000   0.500000   0.500000 )  
               a(3) = (  -0.500000  -0.500000   0.500000 )  

     reciprocal axes: (cart. coord. in units 2 pi/alat)
               b(1) = (  1.000000  0.000000  1.000000 )  
               b(2) = ( -1.000000  1.000000  0.000000 )  
               b(3) = (  0.000000 -1.000000  1.000000 )  


     PseudoPot. # 1 for Nb read from file:
     ./pseudo/nb_pbe_v1.uspp.F.UPF
     MD5 check sum: 573aab8a2fa660278ed4a62cd769473f
     Pseudo is Ultrasoft + core correction, Zval = 13.0
     Generated by new atomic code, or converted to UPF format
     Using radial grid of  887 points,  6 beta functions with: 
                l(1) =   0
                l(2) =   0
                l(3) =   1
                l(4) =   1
                l(5) =   2
                l(6) =   2
     Q(r) pseudized with  6 coefficients,  rinner =    1.000   1.000   1.000
                                                       1.000   1.000

     atomic species   valence    mass     pseudopotential
        Nb            13.00    92.90600     Nb( 1.00)

     48 Sym. Ops., with inversion, found



   Cartesian axes

     site n.     atom                  positions (alat units)
         1           Nb  tau(   1) = (   0.0000000   0.0000000   0.0000000  )

     number of k points=   104  Marzari-Vanderbilt smearing, width (Ry)=  0.0300

     Number of k-points >= 100: set verbosity='high' to print them.

     Dense  grid:     9597 G-vectors     FFT dimensions: (  30,  30,  30)

     Estimated max dynamical RAM per process >      56.03 MB

     Check: negative core charge=   -0.000001

     Initial potential from superposition of free atoms

     Check: negative core charge=   -0.000001

     Initial potential from superposition of free atoms

     starting charge      12.9973, renormalised to      13.0000

     starting charge      12.9973, renormalised to      13.0000

     Check: negative core charge=   -0.000001

     Initial potential from superposition of free atoms

     Check: negative core charge=   -0.000001

     Initial potential from superposition of free atoms

     starting charge      12.9973, renormalised to      13.0000

     starting charge      12.9973, renormalised to      13.0000
     Starting wfcs are   13 randomized atomic wfcs
     Starting wfcs are   13 randomized atomic wfcs
     Starting wfcs are   13 randomized atomic wfcs
     Starting wfcs are   13 randomized atomic wfcs

     total cpu time spent up to now is        0.8 secs

     Self-consistent Calculation

     iteration #  1     ecut=    70.00 Ry     beta= 0.70
     Davidson diagonalization with overlap

     total cpu time spent up to now is        0.8 secs

     Self-consistent Calculation

     iteration #  1     ecut=    70.00 Ry     beta= 0.70
     Davidson diagonalization with overlap

     total cpu time spent up to now is        0.8 secs

     Self-consistent Calculation

     iteration #  1     ecut=    70.00 Ry     beta= 0.70
     Davidson diagonalization with overlap

     total cpu time spent up to now is        0.8 secs

     Self-consistent Calculation

     iteration #  1     ecut=    70.00 Ry     beta= 0.70
     Davidson diagonalization with overlap
     ethr =  1.00E-02,  avg # of iterations =  3.4
     ethr =  1.00E-02,  avg # of iterations =  3.4
     ethr =  1.00E-02,  avg # of iterations =  3.4
     ethr =  1.00E-02,  avg # of iterations =  3.4

     Threshold (ethr) on eigenvalues was too large:
     Diagonalizing with lowered threshold

     Davidson diagonalization with overlap

     Threshold (ethr) on eigenvalues was too large:
     Diagonalizing with lowered threshold

     Davidson diagonalization with overlap

     Threshold (ethr) on eigenvalues was too large:
     Diagonalizing with lowered threshold

     Davidson diagonalization with overlap

     Threshold (ethr) on eigenvalues was too large:
     Diagonalizing with lowered threshold

     Davidson diagonalization with overlap
     ethr =  6.68E-04,  avg # of iterations =  1.2
     ethr =  6.68E-04,  avg # of iterations =  1.2
     ethr =  6.68E-04,  avg # of iterations =  1.2
     ethr =  6.68E-04,  avg # of iterations =  1.2

     total cpu time spent up to now is        3.3 secs

     total energy              =    -117.91176772 Ry
     estimated scf accuracy    <       0.08904951 Ry

     iteration #  2     ecut=    70.00 Ry     beta= 0.70
     Davidson diagonalization with overlap

     total cpu time spent up to now is        3.3 secs

     total energy              =    -117.91176772 Ry
     estimated scf accuracy    <       0.08904951 Ry

     iteration #  2     ecut=    70.00 Ry     beta= 0.70
     Davidson diagonalization with overlap

     total cpu time spent up to now is        3.3 secs

     total energy              =    -117.91176772 Ry
     estimated scf accuracy    <       0.08904951 Ry

     iteration #  2     ecut=    70.00 Ry     beta= 0.70
     Davidson diagonalization with overlap

     total cpu time spent up to now is        3.4 secs

     total energy              =    -117.91176772 Ry
     estimated scf accuracy    <       0.08904951 Ry

     iteration #  2     ecut=    70.00 Ry     beta= 0.70
     Davidson diagonalization with overlap
     ethr =  6.85E-04,  avg # of iterations =  2.0
     ethr =  6.85E-04,  avg # of iterations =  2.0
     ethr =  6.85E-04,  avg # of iterations =  2.0
     ethr =  6.85E-04,  avg # of iterations =  2.0

     total cpu time spent up to now is        4.6 secs

     total energy              =    -117.93209251 Ry
     estimated scf accuracy    <       0.00527744 Ry

     iteration #  3     ecut=    70.00 Ry     beta= 0.70
     Davidson diagonalization with overlap

     total cpu time spent up to now is        4.7 secs

     total energy              =    -117.93209251 Ry
     estimated scf accuracy    <       0.00527744 Ry

     iteration #  3     ecut=    70.00 Ry     beta= 0.70
     Davidson diagonalization with overlap

     total cpu time spent up to now is        4.8 secs

     total energy              =    -117.93209251 Ry
     estimated scf accuracy    <       0.00527744 Ry

     iteration #  3     ecut=    70.00 Ry     beta= 0.70
     Davidson diagonalization with overlap

     total cpu time spent up to now is        4.9 secs

     total energy              =    -117.93209251 Ry
     estimated scf accuracy    <       0.00527744 Ry

     iteration #  3     ecut=    70.00 Ry     beta= 0.70
     Davidson diagonalization with overlap
     ethr =  4.06E-05,  avg # of iterations =  2.8
     ethr =  4.06E-05,  avg # of iterations =  2.8

     total cpu time spent up to now is        6.0 secs

     total energy              =    -117.93292659 Ry
     estimated scf accuracy    <       0.00013635 Ry

     iteration #  4     ecut=    70.00 Ry     beta= 0.70
     Davidson diagonalization with overlap
     ethr =  4.06E-05,  avg # of iterations =  2.8
     ethr =  4.06E-05,  avg # of iterations =  2.8

     total cpu time spent up to now is        6.0 secs

     total energy              =    -117.93292659 Ry
     estimated scf accuracy    <       0.00013635 Ry

     iteration #  4     ecut=    70.00 Ry     beta= 0.70
     Davidson diagonalization with overlap

     total cpu time spent up to now is        6.2 secs

     total energy              =    -117.93292659 Ry
     estimated scf accuracy    <       0.00013635 Ry

     iteration #  4     ecut=    70.00 Ry     beta= 0.70
     Davidson diagonalization with overlap

     total cpu time spent up to now is        6.2 secs

     total energy              =    -117.93292659 Ry
     estimated scf accuracy    <       0.00013635 Ry

     iteration #  4     ecut=    70.00 Ry     beta= 0.70
     Davidson diagonalization with overlap
     ethr =  1.05E-06,  avg # of iterations =  3.2
     ethr =  1.05E-06,  avg # of iterations =  3.2

     total cpu time spent up to now is        7.3 secs

     total energy              =    -117.93293702 Ry
     estimated scf accuracy    <       0.00000683 Ry

     iteration #  5     ecut=    70.00 Ry     beta= 0.70
     Davidson diagonalization with overlap
     ethr =  1.05E-06,  avg # of iterations =  3.2
     ethr =  1.05E-06,  avg # of iterations =  3.2

     total cpu time spent up to now is        7.3 secs

     total energy              =    -117.93293702 Ry
     estimated scf accuracy    <       0.00000683 Ry

     iteration #  5     ecut=    70.00 Ry     beta= 0.70
     Davidson diagonalization with overlap

     total cpu time spent up to now is        7.5 secs

     total energy              =    -117.93293702 Ry
     estimated scf accuracy    <       0.00000683 Ry

     iteration #  5     ecut=    70.00 Ry     beta= 0.70
     Davidson diagonalization with overlap

     total cpu time spent up to now is        7.5 secs

     total energy              =    -117.93293702 Ry
     estimated scf accuracy    <       0.00000683 Ry

     iteration #  5     ecut=    70.00 Ry     beta= 0.70
     Davidson diagonalization with overlap
     ethr =  5.26E-08,  avg # of iterations =  2.1
     ethr =  5.26E-08,  avg # of iterations =  2.1

     total cpu time spent up to now is        8.7 secs

     total energy              =    -117.93293929 Ry
     estimated scf accuracy    <       0.00000242 Ry

     iteration #  6     ecut=    70.00 Ry     beta= 0.70
     Davidson diagonalization with overlap
     ethr =  5.26E-08,  avg # of iterations =  2.1
     ethr =  5.26E-08,  avg # of iterations =  2.1

     total cpu time spent up to now is        8.8 secs

     total energy              =    -117.93293929 Ry
     estimated scf accuracy    <       0.00000242 Ry

     iteration #  6     ecut=    70.00 Ry     beta= 0.70
     Davidson diagonalization with overlap

     total cpu time spent up to now is        9.0 secs

     total energy              =    -117.93293929 Ry
     estimated scf accuracy    <       0.00000242 Ry

     iteration #  6     ecut=    70.00 Ry     beta= 0.70
     Davidson diagonalization with overlap

     total cpu time spent up to now is        9.0 secs

     total energy              =    -117.93293929 Ry
     estimated scf accuracy    <       0.00000242 Ry

     iteration #  6     ecut=    70.00 Ry     beta= 0.70
     Davidson diagonalization with overlap
     ethr =  1.86E-08,  avg # of iterations =  2.0
     ethr =  1.86E-08,  avg # of iterations =  2.0

     total cpu time spent up to now is       10.0 secs

     total energy              =    -117.93293971 Ry
     estimated scf accuracy    <          7.1E-09 Ry

     iteration #  7     ecut=    70.00 Ry     beta= 0.70
     Davidson diagonalization with overlap
     ethr =  1.86E-08,  avg # of iterations =  2.0
     ethr =  1.86E-08,  avg # of iterations =  2.0

     total cpu time spent up to now is       10.1 secs

     total energy              =    -117.93293971 Ry
     estimated scf accuracy    <          7.1E-09 Ry

     iteration #  7     ecut=    70.00 Ry     beta= 0.70
     Davidson diagonalization with overlap

     total cpu time spent up to now is       10.2 secs

     total energy              =    -117.93293971 Ry
     estimated scf accuracy    <          7.1E-09 Ry

     iteration #  7     ecut=    70.00 Ry     beta= 0.70
     Davidson diagonalization with overlap

     total cpu time spent up to now is       10.3 secs

     total energy              =    -117.93293971 Ry
     estimated scf accuracy    <          7.1E-09 Ry

     iteration #  7     ecut=    70.00 Ry     beta= 0.70
     Davidson diagonalization with overlap
     ethr =  5.44E-11,  avg # of iterations =  3.4
     ethr =  5.44E-11,  avg # of iterations =  3.4

     total cpu time spent up to now is       11.5 secs

     total energy              =    -117.93293971 Ry
     estimated scf accuracy    <          4.1E-09 Ry

     iteration #  8     ecut=    70.00 Ry     beta= 0.70
     Davidson diagonalization with overlap
     ethr =  5.44E-11,  avg # of iterations =  3.4
     ethr =  5.44E-11,  avg # of iterations =  3.4

     total cpu time spent up to now is       11.6 secs

     total energy              =    -117.93293971 Ry
     estimated scf accuracy    <          4.1E-09 Ry

     iteration #  8     ecut=    70.00 Ry     beta= 0.70
     Davidson diagonalization with overlap

     total cpu time spent up to now is       11.8 secs

     total energy              =    -117.93293971 Ry
     estimated scf accuracy    <          4.1E-09 Ry

     iteration #  8     ecut=    70.00 Ry     beta= 0.70
     Davidson diagonalization with overlap

     total cpu time spent up to now is       11.8 secs

     total energy              =    -117.93293971 Ry
     estimated scf accuracy    <          4.1E-09 Ry

     iteration #  8     ecut=    70.00 Ry     beta= 0.70
     Davidson diagonalization with overlap
     ethr =  3.18E-11,  avg # of iterations =  2.1
     ethr =  3.18E-11,  avg # of iterations =  2.1

     total cpu time spent up to now is       12.8 secs

     total energy              =    -117.93293971 Ry
     estimated scf accuracy    <          2.8E-10 Ry

     iteration #  9     ecut=    70.00 Ry     beta= 0.70
     Davidson diagonalization with overlap
     ethr =  3.18E-11,  avg # of iterations =  2.1
     ethr =  3.18E-11,  avg # of iterations =  2.1

     total cpu time spent up to now is       12.8 secs

     total energy              =    -117.93293971 Ry
     estimated scf accuracy    <          2.8E-10 Ry

     iteration #  9     ecut=    70.00 Ry     beta= 0.70
     Davidson diagonalization with overlap

     total cpu time spent up to now is       13.0 secs

     total energy              =    -117.93293971 Ry
     estimated scf accuracy    <          2.8E-10 Ry

     iteration #  9     ecut=    70.00 Ry     beta= 0.70
     Davidson diagonalization with overlap

     total cpu time spent up to now is       13.1 secs

     total energy              =    -117.93293971 Ry
     estimated scf accuracy    <          2.8E-10 Ry

     iteration #  9     ecut=    70.00 Ry     beta= 0.70
     Davidson diagonalization with overlap
     ethr =  2.14E-12,  avg # of iterations =  3.0
     ethr =  2.14E-12,  avg # of iterations =  3.0

     total cpu time spent up to now is       14.2 secs

     total energy              =    -117.93293971 Ry
     estimated scf accuracy    <          4.5E-10 Ry

     iteration # 10     ecut=    70.00 Ry     beta= 0.70
     Davidson diagonalization with overlap
     ethr =  2.14E-12,  avg # of iterations =  3.0

     total cpu time spent up to now is       14.3 secs

     total energy              =    -117.93293971 Ry
     estimated scf accuracy    <          4.5E-10 Ry

     iteration # 10     ecut=    70.00 Ry     beta= 0.70
     Davidson diagonalization with overlap
     ethr =  2.14E-12,  avg # of iterations =  3.0

     total cpu time spent up to now is       14.5 secs

     total energy              =    -117.93293971 Ry
     estimated scf accuracy    <          4.5E-10 Ry

     iteration # 10     ecut=    70.00 Ry     beta= 0.70
     Davidson diagonalization with overlap

     total cpu time spent up to now is       14.5 secs

     total energy              =    -117.93293971 Ry
     estimated scf accuracy    <          4.5E-10 Ry

     iteration # 10     ecut=    70.00 Ry     beta= 0.70
     Davidson diagonalization with overlap
     ethr =  2.14E-12,  avg # of iterations =  2.1
     ethr =  2.14E-12,  avg # of iterations =  2.1

     total cpu time spent up to now is       15.6 secs

     End of self-consistent calculation

     Number of k-points >= 100: set verbosity='high' to print the bands.

     the Fermi energy is    18.0684 ev

!    total energy              =    -117.93293971 Ry
     estimated scf accuracy    <          2.6E-13 Ry
     smearing contrib. (-TS)   =      -0.00023234 Ry
     internal energy E=F+TS    =    -117.93270737 Ry

     The total energy is F=E-TS. E is the sum of the following terms:
     one-electron contribution =     -15.73545887 Ry
     hartree contribution      =      14.89337411 Ry
     xc contribution           =     -18.44901027 Ry
     ewald contribution        =     -98.64161234 Ry

     convergence has been achieved in  10 iterations

     Writing all to output data dir ./tmp/Nb_k14.save/
     ethr =  2.14E-12,  avg # of iterations =  2.1

     total cpu time spent up to now is       15.6 secs

     End of self-consistent calculation

     Number of k-points >= 100: set verbosity='high' to print the bands.

     the Fermi energy is    18.0684 ev

!    total energy              =    -117.93293971 Ry
     estimated scf accuracy    <          2.6E-13 Ry
     smearing contrib. (-TS)   =      -0.00023234 Ry
     internal energy E=F+TS    =    -117.93270737 Ry

     The total energy is F=E-TS. E is the sum of the following terms:
     one-electron contribution =     -15.73545887 Ry
     hartree contribution      =      14.89337411 Ry
     xc contribution           =     -18.44901027 Ry
     ewald contribution        =     -98.64161234 Ry

     convergence has been achieved in  10 iterations

     init_run     :      0.69s CPU      0.70s WALL (       1 calls)
     electrons    :     14.39s CPU     14.81s WALL (       1 calls)

     Called by init_run:
     wfcinit      :      0.54s CPU      0.55s WALL (       1 calls)
     potinit      :      0.01s CPU      0.01s WALL (       1 calls)
     hinit0       :      0.12s CPU      0.12s WALL (       1 calls)

     Called by electrons:
     c_bands      :     11.95s CPU     12.31s WALL (      11 calls)
     sum_band     :      2.31s CPU      2.37s WALL (      11 calls)
     v_of_rho     :      0.06s CPU      0.06s WALL (      11 calls)
     newd         :      0.07s CPU      0.08s WALL (      11 calls)
     mix_rho      :      0.01s CPU      0.01s WALL (      11 calls)

     Called by c_bands:
     init_us_2    :      0.30s CPU      0.31s WALL (    2392 calls)
     init_us_2:cp :      0.30s CPU      0.31s WALL (    2392 calls)
     cegterg      :     11.50s CPU     11.84s WALL (    1144 calls)

     Called by *egterg:
     cdiaghg      :      0.25s CPU      0.25s WALL (    3880 calls)
     h_psi        :     10.41s CPU     10.69s WALL (    4088 calls)
     s_psi        :      0.20s CPU      0.21s WALL (    4088 calls)
     g_psi        :      0.03s CPU      0.03s WALL (    2840 calls)

     Called by h_psi:
     h_psi:calbec :      0.24s CPU      0.25s WALL (    4088 calls)
     vloc_psi     :      9.94s CPU     10.20s WALL (    4088 calls)
     add_vuspsi   :      0.20s CPU      0.21s WALL (    4088 calls)

     General routines
     calbec       :      0.32s CPU      0.33s WALL (    5232 calls)
     fft          :      0.03s CPU      0.03s WALL (     122 calls)
     ffts         :      0.00s CPU      0.00s WALL (      11 calls)
     fftw         :     10.77s CPU     11.03s WALL (   77558 calls)


     Writing all to output data dir ./tmp/Nb_k14.save/

     PWSCF        :     15.14s CPU     15.64s WALL


   This run was terminated on:  21:28: 6   6Mar2026            

=------------------------------------------------------------------------------=
   JOB DONE.
=------------------------------------------------------------------------------=
Note: The following floating-point exceptions are signalling: IEEE_INVALID_FLAG IEEE_DIVIDE_BY_ZERO IEEE_UNDERFLOW_FLAG
     ethr =  2.14E-12,  avg # of iterations =  2.1

     init_run     :      0.69s CPU      0.71s WALL (       1 calls)
     electrons    :     14.54s CPU     14.88s WALL (       1 calls)

     Called by init_run:
     wfcinit      :      0.54s CPU      0.56s WALL (       1 calls)
     potinit      :      0.01s CPU      0.01s WALL (       1 calls)
     hinit0       :      0.12s CPU      0.12s WALL (       1 calls)

     Called by electrons:
     c_bands      :     12.09s CPU     12.37s WALL (      11 calls)
     sum_band     :      2.33s CPU      2.38s WALL (      11 calls)
     v_of_rho     :      0.06s CPU      0.06s WALL (      11 calls)
     newd         :      0.07s CPU      0.07s WALL (      11 calls)
     mix_rho      :      0.01s CPU      0.01s WALL (      11 calls)

     Called by c_bands:
     init_us_2    :      0.31s CPU      0.32s WALL (    2392 calls)
     init_us_2:cp :      0.31s CPU      0.32s WALL (    2392 calls)
     cegterg      :     11.63s CPU     11.89s WALL (    1144 calls)

     Called by *egterg:
     cdiaghg      :      0.25s CPU      0.25s WALL (    3880 calls)
     h_psi        :     10.52s CPU     10.73s WALL (    4088 calls)
     s_psi        :      0.21s CPU      0.21s WALL (    4088 calls)
     g_psi        :      0.03s CPU      0.03s WALL (    2840 calls)

     Called by h_psi:
     h_psi:calbec :      0.24s CPU      0.25s WALL (    4088 calls)
     vloc_psi     :     10.05s CPU     10.24s WALL (    4088 calls)
     add_vuspsi   :      0.21s CPU      0.21s WALL (    4088 calls)

     General routines
     calbec       :      0.33s CPU      0.34s WALL (    5232 calls)
     fft          :      0.03s CPU      0.03s WALL (     122 calls)
     ffts         :      0.00s CPU      0.00s WALL (      11 calls)
     fftw         :     10.87s CPU     11.07s WALL (   77558 calls)


     PWSCF        :     15.29s CPU     15.67s WALL


   This run was terminated on:  21:28: 6   6Mar2026            

=------------------------------------------------------------------------------=
   JOB DONE.
=------------------------------------------------------------------------------=
Note: The following floating-point exceptions are signalling: IEEE_INVALID_FLAG IEEE_DIVIDE_BY_ZERO IEEE_UNDERFLOW_FLAG

     total cpu time spent up to now is       15.8 secs

     End of self-consistent calculation

     Number of k-points >= 100: set verbosity='high' to print the bands.

     the Fermi energy is    18.0684 ev

!    total energy              =    -117.93293971 Ry
     estimated scf accuracy    <          2.6E-13 Ry
     smearing contrib. (-TS)   =      -0.00023234 Ry
     internal energy E=F+TS    =    -117.93270737 Ry

     The total energy is F=E-TS. E is the sum of the following terms:
     one-electron contribution =     -15.73545887 Ry
     hartree contribution      =      14.89337411 Ry
     xc contribution           =     -18.44901027 Ry
     ewald contribution        =     -98.64161234 Ry

     convergence has been achieved in  10 iterations

     Writing all to output data dir ./tmp/Nb_k14.save/

     total cpu time spent up to now is       15.9 secs

     End of self-consistent calculation

     Number of k-points >= 100: set verbosity='high' to print the bands.

     the Fermi energy is    18.0684 ev

!    total energy              =    -117.93293971 Ry
     estimated scf accuracy    <          2.6E-13 Ry
     smearing contrib. (-TS)   =      -0.00023234 Ry
     internal energy E=F+TS    =    -117.93270737 Ry

     The total energy is F=E-TS. E is the sum of the following terms:
     one-electron contribution =     -15.73545887 Ry
     hartree contribution      =      14.89337411 Ry
     xc contribution           =     -18.44901027 Ry
     ewald contribution        =     -98.64161234 Ry

     convergence has been achieved in  10 iterations

     Writing all to output data dir ./tmp/Nb_k14.save/

     init_run     :      0.69s CPU      0.71s WALL (       1 calls)
     electrons    :     14.50s CPU     15.08s WALL (       1 calls)

     Called by init_run:
     wfcinit      :      0.55s CPU      0.56s WALL (       1 calls)
     potinit      :      0.01s CPU      0.01s WALL (       1 calls)
     hinit0       :      0.12s CPU      0.12s WALL (       1 calls)

     Called by electrons:
     c_bands      :     12.06s CPU     12.54s WALL (      11 calls)
     sum_band     :      2.32s CPU      2.41s WALL (      11 calls)
     v_of_rho     :      0.06s CPU      0.06s WALL (      11 calls)
     newd         :      0.07s CPU      0.07s WALL (      11 calls)
     mix_rho      :      0.01s CPU      0.01s WALL (      11 calls)

     Called by c_bands:
     init_us_2    :      0.30s CPU      0.32s WALL (    2392 calls)
     init_us_2:cp :      0.30s CPU      0.31s WALL (    2392 calls)
     cegterg      :     11.60s CPU     12.06s WALL (    1144 calls)

     Called by *egterg:
     cdiaghg      :      0.25s CPU      0.26s WALL (    3880 calls)
     h_psi        :     10.50s CPU     10.88s WALL (    4088 calls)
     s_psi        :      0.20s CPU      0.21s WALL (    4088 calls)
     g_psi        :      0.03s CPU      0.03s WALL (    2840 calls)

     Called by h_psi:
     h_psi:calbec :      0.24s CPU      0.25s WALL (    4088 calls)
     vloc_psi     :     10.03s CPU     10.38s WALL (    4088 calls)
     add_vuspsi   :      0.21s CPU      0.21s WALL (    4088 calls)

     General routines
     calbec       :      0.33s CPU      0.34s WALL (    5232 calls)
     fft          :      0.03s CPU      0.03s WALL (     122 calls)
     ffts         :      0.00s CPU      0.00s WALL (      11 calls)
     fftw         :     10.86s CPU     11.21s WALL (   77558 calls)


     PWSCF        :     15.26s CPU     15.89s WALL


   This run was terminated on:  21:28: 6   6Mar2026            

=------------------------------------------------------------------------------=
   JOB DONE.
=------------------------------------------------------------------------------=
Note: The following floating-point exceptions are signalling: IEEE_INVALID_FLAG IEEE_DIVIDE_BY_ZERO IEEE_UNDERFLOW_FLAG

     init_run     :      0.69s CPU      0.71s WALL (       1 calls)
     electrons    :     14.37s CPU     15.11s WALL (       1 calls)

     Called by init_run:
     wfcinit      :      0.54s CPU      0.56s WALL (       1 calls)
     potinit      :      0.01s CPU      0.01s WALL (       1 calls)
     hinit0       :      0.12s CPU      0.12s WALL (       1 calls)

     Called by electrons:
     c_bands      :     11.95s CPU     12.56s WALL (      11 calls)
     sum_band     :      2.30s CPU      2.41s WALL (      11 calls)
     v_of_rho     :      0.06s CPU      0.06s WALL (      11 calls)
     newd         :      0.07s CPU      0.08s WALL (      11 calls)
     mix_rho      :      0.01s CPU      0.01s WALL (      11 calls)

     Called by c_bands:
     init_us_2    :      0.30s CPU      0.32s WALL (    2392 calls)
     init_us_2:cp :      0.30s CPU      0.32s WALL (    2392 calls)
     cegterg      :     11.49s CPU     12.07s WALL (    1144 calls)

     Called by *egterg:
     cdiaghg      :      0.25s CPU      0.26s WALL (    3880 calls)
     h_psi        :     10.39s CPU     10.88s WALL (    4088 calls)
     s_psi        :      0.20s CPU      0.21s WALL (    4088 calls)
     g_psi        :      0.03s CPU      0.03s WALL (    2840 calls)

     Called by h_psi:
     h_psi:calbec :      0.24s CPU      0.25s WALL (    4088 calls)
     vloc_psi     :      9.92s CPU     10.38s WALL (    4088 calls)
     add_vuspsi   :      0.21s CPU      0.21s WALL (    4088 calls)

     General routines
     calbec       :      0.32s CPU      0.34s WALL (    5232 calls)
     fft          :      0.03s CPU      0.03s WALL (     122 calls)
     ffts         :      0.00s CPU      0.00s WALL (      11 calls)
     fftw         :     10.73s CPU     11.21s WALL (   77558 calls)


     PWSCF        :     15.12s CPU     15.91s WALL


   This run was terminated on:  21:28: 6   6Mar2026            

=------------------------------------------------------------------------------=
   JOB DONE.
=------------------------------------------------------------------------------=
Note: The following floating-point exceptions are signalling: IEEE_INVALID_FLAG IEEE_DIVIDE_BY_ZERO IEEE_UNDERFLOW_FLAG
