
     Program PWSCF v.7.2 starts on  6Mar2026 at 21:27:39 

     This program is part of the open-source Quantum ESPRESSO suite
     for quantum simulation of materials; please cite
         "P. Giannozzi et al., J. Phys.:Condens. Matter 21 395502 (2009);
         "P. Giannozzi et al., J. Phys.:Condens. Matter 29 465901 (2017);
         "P. Giannozzi et al., J. Chem. Phys. 152 154105 (2020);
          URL http://www.quantum-espresso.org", 
     in publications or presentations arising from this work. More details at
     http://www.quantum-espresso.org/quote

     Serial multi-threaded version, running on    1 processor cores
     0 MiB available memory on the printing compute node when the environment starts


     Program PWSCF v.7.2 starts on  6Mar2026 at 21:27:39 

     This program is part of the open-source Quantum ESPRESSO suite
     for quantum simulation of materials; please cite
         "P. Giannozzi et al., J. Phys.:Condens. Matter 21 395502 (2009);
         "P. Giannozzi et al., J. Phys.:Condens. Matter 29 465901 (2017);
         "P. Giannozzi et al., J. Chem. Phys. 152 154105 (2020);
          URL http://www.quantum-espresso.org", 
     in publications or presentations arising from this work. More details at
     http://www.quantum-espresso.org/quote

     Serial multi-threaded version, running on    1 processor cores
     0 MiB available memory on the printing compute node when the environment starts


     Program PWSCF v.7.2 starts on  6Mar2026 at 21:27:39 

     This program is part of the open-source Quantum ESPRESSO suite
     for quantum simulation of materials; please cite
         "P. Giannozzi et al., J. Phys.:Condens. Matter 21 395502 (2009);
         "P. Giannozzi et al., J. Phys.:Condens. Matter 29 465901 (2017);
         "P. Giannozzi et al., J. Chem. Phys. 152 154105 (2020);
          URL http://www.quantum-espresso.org", 
     in publications or presentations arising from this work. More details at
     http://www.quantum-espresso.org/quote

     Serial multi-threaded version, running on    1 processor cores
     0 MiB available memory on the printing compute node when the environment starts

     Reading input from tmp_scf.in
     Reading input from tmp_scf.in
     Reading input from tmp_scf.in

     Program PWSCF v.7.2 starts on  6Mar2026 at 21:27:39 

     This program is part of the open-source Quantum ESPRESSO suite
     for quantum simulation of materials; please cite
         "P. Giannozzi et al., J. Phys.:Condens. Matter 21 395502 (2009);
         "P. Giannozzi et al., J. Phys.:Condens. Matter 29 465901 (2017);
         "P. Giannozzi et al., J. Chem. Phys. 152 154105 (2020);
          URL http://www.quantum-espresso.org", 
     in publications or presentations arising from this work. More details at
     http://www.quantum-espresso.org/quote

     Serial multi-threaded version, running on    1 processor cores
     0 MiB available memory on the printing compute node when the environment starts

     Reading input from tmp_scf.in

     Current dimensions of program PWSCF are:
     Max number of different atomic species (ntypx) = 10
     Max number of k-points (npk) =  40000
     Max angular momentum in pseudopotentials (lmaxx) =  4

     Current dimensions of program PWSCF are:
     Max number of different atomic species (ntypx) = 10
     Max number of k-points (npk) =  40000
     Max angular momentum in pseudopotentials (lmaxx) =  4

     Current dimensions of program PWSCF are:
     Max number of different atomic species (ntypx) = 10
     Max number of k-points (npk) =  40000
     Max angular momentum in pseudopotentials (lmaxx) =  4

     Current dimensions of program PWSCF are:
     Max number of different atomic species (ntypx) = 10
     Max number of k-points (npk) =  40000
     Max angular momentum in pseudopotentials (lmaxx) =  4


     G-vector sticks info
     --------------------
     sticks:   dense  smooth     PW     G-vecs:    dense   smooth      PW
     Sum         619     619    197                 9597     9597    1721

     Using Slab Decomposition



     bravais-lattice index     =            3
     lattice parameter (alat)  =       6.2350  a.u.
     unit-cell volume          =     121.1935 (a.u.)^3
     number of atoms/cell      =            1
     number of atomic types    =            1
     number of electrons       =        13.00
     number of Kohn-Sham states=           11
     kinetic-energy cutoff     =      70.0000  Ry
     charge density cutoff     =     280.0000  Ry
     scf convergence threshold =      1.0E-10
     mixing beta               =       0.7000
     number of iterations used =            8  plain     mixing
     Exchange-correlation= SLA  PW   PBE  PBE
                           (   1   4   3   4   0   0   0)

     celldm(1)=   6.235000  celldm(2)=   0.000000  celldm(3)=   0.000000
     celldm(4)=   0.000000  celldm(5)=   0.000000  celldm(6)=   0.000000

     crystal axes: (cart. coord. in units of alat)
               a(1) = (   0.500000   0.500000   0.500000 )  
               a(2) = (  -0.500000   0.500000   0.500000 )  
               a(3) = (  -0.500000  -0.500000   0.500000 )  

     reciprocal axes: (cart. coord. in units 2 pi/alat)
               b(1) = (  1.000000  0.000000  1.000000 )  
               b(2) = ( -1.000000  1.000000  0.000000 )  
               b(3) = (  0.000000 -1.000000  1.000000 )  


     PseudoPot. # 1 for Nb read from file:
     ./pseudo/nb_pbe_v1.uspp.F.UPF
     MD5 check sum: 573aab8a2fa660278ed4a62cd769473f
     Pseudo is Ultrasoft + core correction, Zval = 13.0
     Generated by new atomic code, or converted to UPF format
     Using radial grid of  887 points,  6 beta functions with: 
                l(1) =   0
                l(2) =   0
                l(3) =   1
                l(4) =   1
                l(5) =   2
                l(6) =   2
     Q(r) pseudized with  6 coefficients,  rinner =    1.000   1.000   1.000
                                                       1.000   1.000

     atomic species   valence    mass     pseudopotential
        Nb            13.00    92.90600     Nb( 1.00)

     48 Sym. Ops., with inversion, found



   Cartesian axes

     site n.     atom                  positions (alat units)
         1           Nb  tau(   1) = (   0.0000000   0.0000000   0.0000000  )

     number of k points=    72  Marzari-Vanderbilt smearing, width (Ry)=  0.0300
                       cart. coord. in units 2pi/alat
        k(    1) = (   0.0000000   0.0000000   0.0000000), wk =   0.0011574
        k(    2) = (   0.0000000  -0.0833333   0.0833333), wk =   0.0138889
        k(    3) = (   0.0000000  -0.1666667   0.1666667), wk =   0.0138889
        k(    4) = (   0.0000000  -0.2500000   0.2500000), wk =   0.0138889
        k(    5) = (   0.0000000  -0.3333333   0.3333333), wk =   0.0138889
        k(    6) = (   0.0000000  -0.4166667   0.4166667), wk =   0.0138889
        k(    7) = (   0.0000000   0.5000000  -0.5000000), wk =   0.0069444
        k(    8) = (  -0.0833333  -0.0833333   0.1666667), wk =   0.0277778
        k(    9) = (  -0.0833333  -0.1666667   0.2500000), wk =   0.0555556
        k(   10) = (  -0.0833333  -0.2500000   0.3333333), wk =   0.0555556
        k(   11) = (  -0.0833333  -0.3333333   0.4166667), wk =   0.0555556
        k(   12) = (  -0.0833333   0.5833333  -0.5000000), wk =   0.0555556
        k(   13) = (  -0.1666667  -0.1666667   0.3333333), wk =   0.0277778
        k(   14) = (  -0.1666667  -0.2500000   0.4166667), wk =   0.0555556
        k(   15) = (  -0.1666667   0.6666667  -0.5000000), wk =   0.0555556
        k(   16) = (  -0.1666667   0.5833333  -0.4166667), wk =   0.0277778
        k(   17) = (  -0.2500000   0.7500000  -0.5000000), wk =   0.0277778
        k(   18) = (  -0.2500000   0.6666667  -0.4166667), wk =   0.0555556
        k(   19) = (  -0.3333333   0.6666667  -0.3333333), wk =   0.0092593
        k(   20) = (   0.0000000   0.0000000   0.1666667), wk =   0.0069444
        k(   21) = (   0.0000000  -0.0833333   0.2500000), wk =   0.0277778
        k(   22) = (   0.0000000  -0.1666667   0.3333333), wk =   0.0277778
        k(   23) = (   0.0000000  -0.2500000   0.4166667), wk =   0.0277778
        k(   24) = (   0.0000000  -0.3333333   0.5000000), wk =   0.0277778
        k(   25) = (   0.0000000   0.5833333  -0.4166667), wk =   0.0138889
        k(   26) = (  -0.0833333  -0.0833333   0.3333333), wk =   0.0277778
        k(   27) = (  -0.0833333  -0.1666667   0.4166667), wk =   0.0555556
        k(   28) = (  -0.0833333  -0.2500000   0.5000000), wk =   0.0555556
        k(   29) = (  -0.0833333   0.6666667  -0.4166667), wk =   0.0555556
        k(   30) = (  -0.1666667   0.1666667   0.1666667), wk =   0.0092593
        k(   31) = (  -0.1666667  -0.1666667   0.5000000), wk =   0.0277778
        k(   32) = (  -0.1666667   0.7500000  -0.4166667), wk =   0.0555556
        k(   33) = (  -0.1666667   0.6666667  -0.3333333), wk =   0.0277778
        k(   34) = (  -0.2500000   0.2500000   0.1666667), wk =   0.0277778
        k(   35) = (  -0.2500000   0.7500000  -0.3333333), wk =   0.0277778
        k(   36) = (  -0.3333333   0.3333333   0.1666667), wk =   0.0277778
        k(   37) = (  -0.3333333   0.2500000   0.2500000), wk =   0.0277778
        k(   38) = (   0.5833333  -0.5833333   0.1666667), wk =   0.0277778
        k(   39) = (   0.5833333  -0.6666667   0.2500000), wk =   0.0555556
        k(   40) = (   0.5000000  -0.5000000   0.1666667), wk =   0.0138889
        k(   41) = (   0.5000000  -0.5833333   0.2500000), wk =   0.0555556
        k(   42) = (   0.5000000  -0.6666667   0.3333333), wk =   0.0277778
        k(   43) = (   0.4166667  -0.5833333   0.3333333), wk =   0.0277778
        k(   44) = (   0.0000000   0.0000000   0.3333333), wk =   0.0069444
        k(   45) = (   0.0000000  -0.0833333   0.4166667), wk =   0.0277778
        k(   46) = (   0.0000000  -0.1666667   0.5000000), wk =   0.0277778
        k(   47) = (   0.0000000  -0.2500000   0.5833333), wk =   0.0277778
        k(   48) = (   0.0000000   0.6666667  -0.3333333), wk =   0.0138889
        k(   49) = (  -0.0833333  -0.0833333   0.5000000), wk =   0.0277778
        k(   50) = (  -0.0833333  -0.1666667   0.5833333), wk =   0.0555556
        k(   51) = (  -0.0833333   0.7500000  -0.3333333), wk =   0.0555556
        k(   52) = (  -0.1666667   0.8333333  -0.3333333), wk =   0.0277778
        k(   53) = (  -0.1666667   0.7500000  -0.2500000), wk =   0.0277778
        k(   54) = (   0.6666667  -0.6666667   0.3333333), wk =   0.0092593
        k(   55) = (   0.5833333  -0.5833333   0.3333333), wk =   0.0277778
        k(   56) = (   0.5000000  -0.5000000   0.3333333), wk =   0.0138889
        k(   57) = (   0.5000000  -0.5833333   0.4166667), wk =   0.0277778

        k(   58) = (   0.0000000   0.0000000   0.5000000), wk =   0.0069444
        k(   59) = (   0.0000000  -0.0833333   0.5833333), wk =   0.0277778
        k(   60) = (   0.0000000  -0.1666667   0.6666667), wk =   0.0277778
        k(   61) = (   0.0000000   0.7500000  -0.2500000), wk =   0.0138889
        k(   62) = (  -0.0833333  -0.0833333   0.6666667), wk =   0.0277778
        k(   63) = (  -0.0833333   0.8333333  -0.2500000), wk =   0.0555556
        k(   64) = (  -0.1666667   0.8333333  -0.1666667), wk =   0.0092593
        k(   65) = (   0.5000000  -0.5000000   0.5000000), wk =   0.0023148
        k(   66) = (   0.0000000   0.0000000   0.6666667), wk =   0.0069444
        k(   67) = (   0.0000000  -0.0833333   0.7500000), wk =   0.0277778
        k(   68) = (   0.0000000   0.8333333  -0.1666667), wk =   0.0138889
        k(   69) = (  -0.0833333   0.9166667  -0.1666667), wk =   0.0277778
        k(   70) = (   0.0000000   0.0000000   0.8333333), wk =   0.0069444
        k(   71) = (   0.0000000   0.9166667  -0.0833333), wk =   0.0138889
        k(   72) = (   0.0000000   0.0000000  -1.0000000), wk =   0.0011574

     Dense  grid:     9597 G-vectors     FFT dimensions: (  30,  30,  30)

     Estimated max dynamical RAM per process >      49.59 MB


     G-vector sticks info
     --------------------
     sticks:   dense  smooth     PW     G-vecs:    dense   smooth      PW
     Sum         619     619    197                 9597     9597    1721

     Using Slab Decomposition



     bravais-lattice index     =            3
     lattice parameter (alat)  =       6.2350  a.u.
     unit-cell volume          =     121.1935 (a.u.)^3
     number of atoms/cell      =            1
     number of atomic types    =            1
     number of electrons       =        13.00
     number of Kohn-Sham states=           11
     kinetic-energy cutoff     =      70.0000  Ry
     charge density cutoff     =     280.0000  Ry
     scf convergence threshold =      1.0E-10
     mixing beta               =       0.7000
     number of iterations used =            8  plain     mixing
     Exchange-correlation= SLA  PW   PBE  PBE
                           (   1   4   3   4   0   0   0)

     celldm(1)=   6.235000  celldm(2)=   0.000000  celldm(3)=   0.000000
     celldm(4)=   0.000000  celldm(5)=   0.000000  celldm(6)=   0.000000

     G-vector sticks info
     --------------------

     crystal axes: (cart. coord. in units of alat)
               a(1) = (   0.500000   0.500000   0.500000 )  
               a(2) = (  -0.500000   0.500000   0.500000 )  
     sticks:   dense  smooth     PW     G-vecs:    dense   smooth      PW
     Sum         619     619    197                 9597     9597    1721

     Using Slab Decomposition
               a(3) = (  -0.500000  -0.500000   0.500000 )  

     reciprocal axes: (cart. coord. in units 2 pi/alat)
               b(1) = (  1.000000  0.000000  1.000000 )  

               b(2) = ( -1.000000  1.000000  0.000000 )  
               b(3) = (  0.000000 -1.000000  1.000000 )  



     bravais-lattice index     =            3

     PseudoPot. # 1 for Nb read from file:
     lattice parameter (alat)  =       6.2350  a.u.
     unit-cell volume          =     121.1935 (a.u.)^3
     number of atoms/cell      =            1
     number of atomic types    =            1
     ./pseudo/nb_pbe_v1.uspp.F.UPF
     MD5 check sum: 573aab8a2fa660278ed4a62cd769473f
     Pseudo is Ultrasoft + core correction, Zval = 13.0
     number of electrons       =        13.00
     Generated by new atomic code, or converted to UPF format
     Using radial grid of  887 points,  6 beta functions with: 
     number of Kohn-Sham states=           11
     kinetic-energy cutoff     =      70.0000  Ry
     charge density cutoff     =     280.0000  Ry
                l(1) =   0
                l(2) =   0
                l(3) =   1
                l(4) =   1
                l(5) =   2
                l(6) =   2
     scf convergence threshold =      1.0E-10
     mixing beta               =       0.7000
     number of iterations used =            8  plain     mixing
     Exchange-correlation= SLA  PW   PBE  PBE
     Q(r) pseudized with  6 coefficients,  rinner =    1.000   1.000   1.000
                                                       1.000   1.000

                           (   1   4   3   4   0   0   0)

     atomic species   valence    mass     pseudopotential
        Nb            13.00    92.90600     Nb( 1.00)
     celldm(1)=   6.235000  celldm(2)=   0.000000  celldm(3)=   0.000000
     celldm(4)=   0.000000  celldm(5)=   0.000000  celldm(6)=   0.000000


     48 Sym. Ops., with inversion, found



   Cartesian axes

     crystal axes: (cart. coord. in units of alat)
               a(1) = (   0.500000   0.500000   0.500000 )  
               a(2) = (  -0.500000   0.500000   0.500000 )  
     site n.     atom                  positions (alat units)
         1           Nb  tau(   1) = (   0.0000000   0.0000000   0.0000000  )
               a(3) = (  -0.500000  -0.500000   0.500000 )  

     reciprocal axes: (cart. coord. in units 2 pi/alat)
               b(1) = (  1.000000  0.000000  1.000000 )  

     number of k points=    72  Marzari-Vanderbilt smearing, width (Ry)=  0.0300
                       cart. coord. in units 2pi/alat
               b(2) = ( -1.000000  1.000000  0.000000 )  
               b(3) = (  0.000000 -1.000000  1.000000 )  

        k(    1) = (   0.0000000   0.0000000   0.0000000), wk =   0.0011574
        k(    2) = (   0.0000000  -0.0833333   0.0833333), wk =   0.0138889
        k(    3) = (   0.0000000  -0.1666667   0.1666667), wk =   0.0138889

     PseudoPot. # 1 for Nb read from file:
     ./pseudo/nb_pbe_v1.uspp.F.UPF
     MD5 check sum: 573aab8a2fa660278ed4a62cd769473f
     Pseudo is Ultrasoft + core correction, Zval = 13.0
        k(    4) = (   0.0000000  -0.2500000   0.2500000), wk =   0.0138889
        k(    5) = (   0.0000000  -0.3333333   0.3333333), wk =   0.0138889
        k(    6) = (   0.0000000  -0.4166667   0.4166667), wk =   0.0138889
        k(    7) = (   0.0000000   0.5000000  -0.5000000), wk =   0.0069444
     Generated by new atomic code, or converted to UPF format
     Using radial grid of  887 points,  6 beta functions with: 

        k(    8) = (  -0.0833333  -0.0833333   0.1666667), wk =   0.0277778
        k(    9) = (  -0.0833333  -0.1666667   0.2500000), wk =   0.0555556
        k(   10) = (  -0.0833333  -0.2500000   0.3333333), wk =   0.0555556
        k(   11) = (  -0.0833333  -0.3333333   0.4166667), wk =   0.0555556
        k(   12) = (  -0.0833333   0.5833333  -0.5000000), wk =   0.0555556
                l(1) =   0
                l(2) =   0
                l(3) =   1
                l(4) =   1
                l(5) =   2
                l(6) =   2
        k(   13) = (  -0.1666667  -0.1666667   0.3333333), wk =   0.0277778
        k(   14) = (  -0.1666667  -0.2500000   0.4166667), wk =   0.0555556
        k(   15) = (  -0.1666667   0.6666667  -0.5000000), wk =   0.0555556
     Q(r) pseudized with  6 coefficients,  rinner =    1.000   1.000   1.000
                                                       1.000   1.000

     atomic species   valence    mass     pseudopotential
        k(   16) = (  -0.1666667   0.5833333  -0.4166667), wk =   0.0277778
        k(   17) = (  -0.2500000   0.7500000  -0.5000000), wk =   0.0277778
        k(   18) = (  -0.2500000   0.6666667  -0.4166667), wk =   0.0555556
        Nb            13.00    92.90600     Nb( 1.00)

     48 Sym. Ops., with inversion, found
        k(   19) = (  -0.3333333   0.6666667  -0.3333333), wk =   0.0092593



   Cartesian axes
        k(   20) = (   0.0000000   0.0000000   0.1666667), wk =   0.0069444
        k(   21) = (   0.0000000  -0.0833333   0.2500000), wk =   0.0277778
        k(   22) = (   0.0000000  -0.1666667   0.3333333), wk =   0.0277778

     site n.     atom                  positions (alat units)
         1           Nb  tau(   1) = (   0.0000000   0.0000000   0.0000000  )
        k(   23) = (   0.0000000  -0.2500000   0.4166667), wk =   0.0277778
        k(   24) = (   0.0000000  -0.3333333   0.5000000), wk =   0.0277778
        k(   25) = (   0.0000000   0.5833333  -0.4166667), wk =   0.0138889

     number of k points=    72  Marzari-Vanderbilt smearing, width (Ry)=  0.0300
        k(   26) = (  -0.0833333  -0.0833333   0.3333333), wk =   0.0277778
        k(   27) = (  -0.0833333  -0.1666667   0.4166667), wk =   0.0555556
                       cart. coord. in units 2pi/alat
        k(    1) = (   0.0000000   0.0000000   0.0000000), wk =   0.0011574
        k(   28) = (  -0.0833333  -0.2500000   0.5000000), wk =   0.0555556
        k(   29) = (  -0.0833333   0.6666667  -0.4166667), wk =   0.0555556
        k(    2) = (   0.0000000  -0.0833333   0.0833333), wk =   0.0138889
        k(    3) = (   0.0000000  -0.1666667   0.1666667), wk =   0.0138889
        k(   30) = (  -0.1666667   0.1666667   0.1666667), wk =   0.0092593
        k(   31) = (  -0.1666667  -0.1666667   0.5000000), wk =   0.0277778
        k(   32) = (  -0.1666667   0.7500000  -0.4166667), wk =   0.0555556
        k(    4) = (   0.0000000  -0.2500000   0.2500000), wk =   0.0138889
        k(    5) = (   0.0000000  -0.3333333   0.3333333), wk =   0.0138889
        k(    6) = (   0.0000000  -0.4166667   0.4166667), wk =   0.0138889
        k(   33) = (  -0.1666667   0.6666667  -0.3333333), wk =   0.0277778
        k(   34) = (  -0.2500000   0.2500000   0.1666667), wk =   0.0277778
        k(    7) = (   0.0000000   0.5000000  -0.5000000), wk =   0.0069444
        k(    8) = (  -0.0833333  -0.0833333   0.1666667), wk =   0.0277778
        k(   35) = (  -0.2500000   0.7500000  -0.3333333), wk =   0.0277778
        k(   36) = (  -0.3333333   0.3333333   0.1666667), wk =   0.0277778
        k(   37) = (  -0.3333333   0.2500000   0.2500000), wk =   0.0277778
        k(    9) = (  -0.0833333  -0.1666667   0.2500000), wk =   0.0555556
        k(   10) = (  -0.0833333  -0.2500000   0.3333333), wk =   0.0555556
        k(   11) = (  -0.0833333  -0.3333333   0.4166667), wk =   0.0555556
        k(   38) = (   0.5833333  -0.5833333   0.1666667), wk =   0.0277778
        k(   39) = (   0.5833333  -0.6666667   0.2500000), wk =   0.0555556
        k(   12) = (  -0.0833333   0.5833333  -0.5000000), wk =   0.0555556
        k(   13) = (  -0.1666667  -0.1666667   0.3333333), wk =   0.0277778
        k(   40) = (   0.5000000  -0.5000000   0.1666667), wk =   0.0138889
        k(   41) = (   0.5000000  -0.5833333   0.2500000), wk =   0.0555556
        k(   42) = (   0.5000000  -0.6666667   0.3333333), wk =   0.0277778
        k(   43) = (   0.4166667  -0.5833333   0.3333333), wk =   0.0277778
        k(   14) = (  -0.1666667  -0.2500000   0.4166667), wk =   0.0555556
        k(   15) = (  -0.1666667   0.6666667  -0.5000000), wk =   0.0555556
        k(   16) = (  -0.1666667   0.5833333  -0.4166667), wk =   0.0277778
        k(   44) = (   0.0000000   0.0000000   0.3333333), wk =   0.0069444
        k(   45) = (   0.0000000  -0.0833333   0.4166667), wk =   0.0277778
        k(   17) = (  -0.2500000   0.7500000  -0.5000000), wk =   0.0277778
        k(   18) = (  -0.2500000   0.6666667  -0.4166667), wk =   0.0555556
        k(   46) = (   0.0000000  -0.1666667   0.5000000), wk =   0.0277778
        k(   47) = (   0.0000000  -0.2500000   0.5833333), wk =   0.0277778
        k(   19) = (  -0.3333333   0.6666667  -0.3333333), wk =   0.0092593
        k(   20) = (   0.0000000   0.0000000   0.1666667), wk =   0.0069444
        k(   48) = (   0.0000000   0.6666667  -0.3333333), wk =   0.0138889
        k(   49) = (  -0.0833333  -0.0833333   0.5000000), wk =   0.0277778
        k(   21) = (   0.0000000  -0.0833333   0.2500000), wk =   0.0277778
        k(   22) = (   0.0000000  -0.1666667   0.3333333), wk =   0.0277778
        k(   50) = (  -0.0833333  -0.1666667   0.5833333), wk =   0.0555556
        k(   51) = (  -0.0833333   0.7500000  -0.3333333), wk =   0.0555556
        k(   23) = (   0.0000000  -0.2500000   0.4166667), wk =   0.0277778
        k(   24) = (   0.0000000  -0.3333333   0.5000000), wk =   0.0277778
        k(   52) = (  -0.1666667   0.8333333  -0.3333333), wk =   0.0277778
        k(   25) = (   0.0000000   0.5833333  -0.4166667), wk =   0.0138889
        k(   26) = (  -0.0833333  -0.0833333   0.3333333), wk =   0.0277778
        k(   27) = (  -0.0833333  -0.1666667   0.4166667), wk =   0.0555556
        k(   53) = (  -0.1666667   0.7500000  -0.2500000), wk =   0.0277778
        k(   54) = (   0.6666667  -0.6666667   0.3333333), wk =   0.0092593
        k(   55) = (   0.5833333  -0.5833333   0.3333333), wk =   0.0277778
        k(   28) = (  -0.0833333  -0.2500000   0.5000000), wk =   0.0555556
        k(   29) = (  -0.0833333   0.6666667  -0.4166667), wk =   0.0555556
        k(   56) = (   0.5000000  -0.5000000   0.3333333), wk =   0.0138889
        k(   57) = (   0.5000000  -0.5833333   0.4166667), wk =   0.0277778
        k(   58) = (   0.0000000   0.0000000   0.5000000), wk =   0.0069444
        k(   30) = (  -0.1666667   0.1666667   0.1666667), wk =   0.0092593
        k(   31) = (  -0.1666667  -0.1666667   0.5000000), wk =   0.0277778
        k(   32) = (  -0.1666667   0.7500000  -0.4166667), wk =   0.0555556
        k(   59) = (   0.0000000  -0.0833333   0.5833333), wk =   0.0277778
        k(   60) = (   0.0000000  -0.1666667   0.6666667), wk =   0.0277778
        k(   61) = (   0.0000000   0.7500000  -0.2500000), wk =   0.0138889
        k(   33) = (  -0.1666667   0.6666667  -0.3333333), wk =   0.0277778
        k(   34) = (  -0.2500000   0.2500000   0.1666667), wk =   0.0277778
        k(   62) = (  -0.0833333  -0.0833333   0.6666667), wk =   0.0277778
        k(   63) = (  -0.0833333   0.8333333  -0.2500000), wk =   0.0555556
        k(   35) = (  -0.2500000   0.7500000  -0.3333333), wk =   0.0277778
        k(   36) = (  -0.3333333   0.3333333   0.1666667), wk =   0.0277778
        k(   37) = (  -0.3333333   0.2500000   0.2500000), wk =   0.0277778
        k(   64) = (  -0.1666667   0.8333333  -0.1666667), wk =   0.0092593
        k(   65) = (   0.5000000  -0.5000000   0.5000000), wk =   0.0023148
        k(   66) = (   0.0000000   0.0000000   0.6666667), wk =   0.0069444
        k(   38) = (   0.5833333  -0.5833333   0.1666667), wk =   0.0277778
        k(   39) = (   0.5833333  -0.6666667   0.2500000), wk =   0.0555556
        k(   40) = (   0.5000000  -0.5000000   0.1666667), wk =   0.0138889
        k(   67) = (   0.0000000  -0.0833333   0.7500000), wk =   0.0277778
        k(   68) = (   0.0000000   0.8333333  -0.1666667), wk =   0.0138889
        k(   41) = (   0.5000000  -0.5833333   0.2500000), wk =   0.0555556
        k(   42) = (   0.5000000  -0.6666667   0.3333333), wk =   0.0277778
        k(   43) = (   0.4166667  -0.5833333   0.3333333), wk =   0.0277778
        k(   69) = (  -0.0833333   0.9166667  -0.1666667), wk =   0.0277778
        k(   70) = (   0.0000000   0.0000000   0.8333333), wk =   0.0069444
        k(   71) = (   0.0000000   0.9166667  -0.0833333), wk =   0.0138889
        k(   72) = (   0.0000000   0.0000000  -1.0000000), wk =   0.0011574
        k(   44) = (   0.0000000   0.0000000   0.3333333), wk =   0.0069444
        k(   45) = (   0.0000000  -0.0833333   0.4166667), wk =   0.0277778
        k(   46) = (   0.0000000  -0.1666667   0.5000000), wk =   0.0277778
        k(   47) = (   0.0000000  -0.2500000   0.5833333), wk =   0.0277778
        k(   48) = (   0.0000000   0.6666667  -0.3333333), wk =   0.0138889
        k(   49) = (  -0.0833333  -0.0833333   0.5000000), wk =   0.0277778
        k(   50) = (  -0.0833333  -0.1666667   0.5833333), wk =   0.0555556

     Dense  grid:     9597 G-vectors     FFT dimensions: (  30,  30,  30)

     Estimated max dynamical RAM per process >      49.59 MB
        k(   51) = (  -0.0833333   0.7500000  -0.3333333), wk =   0.0555556
        k(   52) = (  -0.1666667   0.8333333  -0.3333333), wk =   0.0277778
        k(   53) = (  -0.1666667   0.7500000  -0.2500000), wk =   0.0277778
        k(   54) = (   0.6666667  -0.6666667   0.3333333), wk =   0.0092593
        k(   55) = (   0.5833333  -0.5833333   0.3333333), wk =   0.0277778
        k(   56) = (   0.5000000  -0.5000000   0.3333333), wk =   0.0138889
        k(   57) = (   0.5000000  -0.5833333   0.4166667), wk =   0.0277778
        k(   58) = (   0.0000000   0.0000000   0.5000000), wk =   0.0069444
        k(   59) = (   0.0000000  -0.0833333   0.5833333), wk =   0.0277778
        k(   60) = (   0.0000000  -0.1666667   0.6666667), wk =   0.0277778
        k(   61) = (   0.0000000   0.7500000  -0.2500000), wk =   0.0138889
        k(   62) = (  -0.0833333  -0.0833333   0.6666667), wk =   0.0277778
        k(   63) = (  -0.0833333   0.8333333  -0.2500000), wk =   0.0555556
        k(   64) = (  -0.1666667   0.8333333  -0.1666667), wk =   0.0092593
        k(   65) = (   0.5000000  -0.5000000   0.5000000), wk =   0.0023148
        k(   66) = (   0.0000000   0.0000000   0.6666667), wk =   0.0069444
        k(   67) = (   0.0000000  -0.0833333   0.7500000), wk =   0.0277778
        k(   68) = (   0.0000000   0.8333333  -0.1666667), wk =   0.0138889
        k(   69) = (  -0.0833333   0.9166667  -0.1666667), wk =   0.0277778
        k(   70) = (   0.0000000   0.0000000   0.8333333), wk =   0.0069444
        k(   71) = (   0.0000000   0.9166667  -0.0833333), wk =   0.0138889
        k(   72) = (   0.0000000   0.0000000  -1.0000000), wk =   0.0011574

     Dense  grid:     9597 G-vectors     FFT dimensions: (  30,  30,  30)

     Estimated max dynamical RAM per process >      49.59 MB

     G-vector sticks info
     --------------------
     sticks:   dense  smooth     PW     G-vecs:    dense   smooth      PW
     Sum         619     619    197                 9597     9597    1721

     Using Slab Decomposition



     bravais-lattice index     =            3
     lattice parameter (alat)  =       6.2350  a.u.
     unit-cell volume          =     121.1935 (a.u.)^3
     number of atoms/cell      =            1
     number of atomic types    =            1
     number of electrons       =        13.00
     number of Kohn-Sham states=           11
     kinetic-energy cutoff     =      70.0000  Ry
     charge density cutoff     =     280.0000  Ry
     scf convergence threshold =      1.0E-10
     mixing beta               =       0.7000
     number of iterations used =            8  plain     mixing
     Exchange-correlation= SLA  PW   PBE  PBE
                           (   1   4   3   4   0   0   0)

     celldm(1)=   6.235000  celldm(2)=   0.000000  celldm(3)=   0.000000
     celldm(4)=   0.000000  celldm(5)=   0.000000  celldm(6)=   0.000000

     crystal axes: (cart. coord. in units of alat)
               a(1) = (   0.500000   0.500000   0.500000 )  
               a(2) = (  -0.500000   0.500000   0.500000 )  
               a(3) = (  -0.500000  -0.500000   0.500000 )  

     reciprocal axes: (cart. coord. in units 2 pi/alat)
               b(1) = (  1.000000  0.000000  1.000000 )  
               b(2) = ( -1.000000  1.000000  0.000000 )  
               b(3) = (  0.000000 -1.000000  1.000000 )  


     PseudoPot. # 1 for Nb read from file:
     ./pseudo/nb_pbe_v1.uspp.F.UPF
     MD5 check sum: 573aab8a2fa660278ed4a62cd769473f
     Pseudo is Ultrasoft + core correction, Zval = 13.0
     Generated by new atomic code, or converted to UPF format
     Using radial grid of  887 points,  6 beta functions with: 
                l(1) =   0
                l(2) =   0
                l(3) =   1
                l(4) =   1
                l(5) =   2
                l(6) =   2
     Q(r) pseudized with  6 coefficients,  rinner =    1.000   1.000   1.000
                                                       1.000   1.000

     atomic species   valence    mass     pseudopotential
        Nb            13.00    92.90600     Nb( 1.00)

     48 Sym. Ops., with inversion, found



   Cartesian axes

     site n.     atom                  positions (alat units)
         1           Nb  tau(   1) = (   0.0000000   0.0000000   0.0000000  )

     number of k points=    72  Marzari-Vanderbilt smearing, width (Ry)=  0.0300
                       cart. coord. in units 2pi/alat
        k(    1) = (   0.0000000   0.0000000   0.0000000), wk =   0.0011574
        k(    2) = (   0.0000000  -0.0833333   0.0833333), wk =   0.0138889
        k(    3) = (   0.0000000  -0.1666667   0.1666667), wk =   0.0138889
        k(    4) = (   0.0000000  -0.2500000   0.2500000), wk =   0.0138889
        k(    5) = (   0.0000000  -0.3333333   0.3333333), wk =   0.0138889
        k(    6) = (   0.0000000  -0.4166667   0.4166667), wk =   0.0138889
        k(    7) = (   0.0000000   0.5000000  -0.5000000), wk =   0.0069444
        k(    8) = (  -0.0833333  -0.0833333   0.1666667), wk =   0.0277778
        k(    9) = (  -0.0833333  -0.1666667   0.2500000), wk =   0.0555556
        k(   10) = (  -0.0833333  -0.2500000   0.3333333), wk =   0.0555556
        k(   11) = (  -0.0833333  -0.3333333   0.4166667), wk =   0.0555556
        k(   12) = (  -0.0833333   0.5833333  -0.5000000), wk =   0.0555556
        k(   13) = (  -0.1666667  -0.1666667   0.3333333), wk =   0.0277778
        k(   14) = (  -0.1666667  -0.2500000   0.4166667), wk =   0.0555556
        k(   15) = (  -0.1666667   0.6666667  -0.5000000), wk =   0.0555556
        k(   16) = (  -0.1666667   0.5833333  -0.4166667), wk =   0.0277778
        k(   17) = (  -0.2500000   0.7500000  -0.5000000), wk =   0.0277778
        k(   18) = (  -0.2500000   0.6666667  -0.4166667), wk =   0.0555556
        k(   19) = (  -0.3333333   0.6666667  -0.3333333), wk =   0.0092593
        k(   20) = (   0.0000000   0.0000000   0.1666667), wk =   0.0069444
        k(   21) = (   0.0000000  -0.0833333   0.2500000), wk =   0.0277778
        k(   22) = (   0.0000000  -0.1666667   0.3333333), wk =   0.0277778
        k(   23) = (   0.0000000  -0.2500000   0.4166667), wk =   0.0277778
        k(   24) = (   0.0000000  -0.3333333   0.5000000), wk =   0.0277778
        k(   25) = (   0.0000000   0.5833333  -0.4166667), wk =   0.0138889
        k(   26) = (  -0.0833333  -0.0833333   0.3333333), wk =   0.0277778
        k(   27) = (  -0.0833333  -0.1666667   0.4166667), wk =   0.0555556
        k(   28) = (  -0.0833333  -0.2500000   0.5000000), wk =   0.0555556
        k(   29) = (  -0.0833333   0.6666667  -0.4166667), wk =   0.0555556
        k(   30) = (  -0.1666667   0.1666667   0.1666667), wk =   0.0092593
        k(   31) = (  -0.1666667  -0.1666667   0.5000000), wk =   0.0277778
        k(   32) = (  -0.1666667   0.7500000  -0.4166667), wk =   0.0555556
        k(   33) = (  -0.1666667   0.6666667  -0.3333333), wk =   0.0277778
        k(   34) = (  -0.2500000   0.2500000   0.1666667), wk =   0.0277778
        k(   35) = (  -0.2500000   0.7500000  -0.3333333), wk =   0.0277778
        k(   36) = (  -0.3333333   0.3333333   0.1666667), wk =   0.0277778
        k(   37) = (  -0.3333333   0.2500000   0.2500000), wk =   0.0277778
        k(   38) = (   0.5833333  -0.5833333   0.1666667), wk =   0.0277778
        k(   39) = (   0.5833333  -0.6666667   0.2500000), wk =   0.0555556
        k(   40) = (   0.5000000  -0.5000000   0.1666667), wk =   0.0138889
        k(   41) = (   0.5000000  -0.5833333   0.2500000), wk =   0.0555556
        k(   42) = (   0.5000000  -0.6666667   0.3333333), wk =   0.0277778
        k(   43) = (   0.4166667  -0.5833333   0.3333333), wk =   0.0277778
        k(   44) = (   0.0000000   0.0000000   0.3333333), wk =   0.0069444
        k(   45) = (   0.0000000  -0.0833333   0.4166667), wk =   0.0277778
        k(   46) = (   0.0000000  -0.1666667   0.5000000), wk =   0.0277778
        k(   47) = (   0.0000000  -0.2500000   0.5833333), wk =   0.0277778
        k(   48) = (   0.0000000   0.6666667  -0.3333333), wk =   0.0138889
        k(   49) = (  -0.0833333  -0.0833333   0.5000000), wk =   0.0277778
        k(   50) = (  -0.0833333  -0.1666667   0.5833333), wk =   0.0555556
        k(   51) = (  -0.0833333   0.7500000  -0.3333333), wk =   0.0555556
        k(   52) = (  -0.1666667   0.8333333  -0.3333333), wk =   0.0277778
        k(   53) = (  -0.1666667   0.7500000  -0.2500000), wk =   0.0277778
        k(   54) = (   0.6666667  -0.6666667   0.3333333), wk =   0.0092593
        k(   55) = (   0.5833333  -0.5833333   0.3333333), wk =   0.0277778
        k(   56) = (   0.5000000  -0.5000000   0.3333333), wk =   0.0138889
        k(   57) = (   0.5000000  -0.5833333   0.4166667), wk =   0.0277778
        k(   58) = (   0.0000000   0.0000000   0.5000000), wk =   0.0069444
        k(   59) = (   0.0000000  -0.0833333   0.5833333), wk =   0.0277778
        k(   60) = (   0.0000000  -0.1666667   0.6666667), wk =   0.0277778
        k(   61) = (   0.0000000   0.7500000  -0.2500000), wk =   0.0138889
        k(   62) = (  -0.0833333  -0.0833333   0.6666667), wk =   0.0277778
        k(   63) = (  -0.0833333   0.8333333  -0.2500000), wk =   0.0555556
        k(   64) = (  -0.1666667   0.8333333  -0.1666667), wk =   0.0092593
        k(   65) = (   0.5000000  -0.5000000   0.5000000), wk =   0.0023148
        k(   66) = (   0.0000000   0.0000000   0.6666667), wk =   0.0069444
        k(   67) = (   0.0000000  -0.0833333   0.7500000), wk =   0.0277778
        k(   68) = (   0.0000000   0.8333333  -0.1666667), wk =   0.0138889
        k(   69) = (  -0.0833333   0.9166667  -0.1666667), wk =   0.0277778
        k(   70) = (   0.0000000   0.0000000   0.8333333), wk =   0.0069444
        k(   71) = (   0.0000000   0.9166667  -0.0833333), wk =   0.0138889
        k(   72) = (   0.0000000   0.0000000  -1.0000000), wk =   0.0011574

     Dense  grid:     9597 G-vectors     FFT dimensions: (  30,  30,  30)

     Estimated max dynamical RAM per process >      49.59 MB

     Check: negative core charge=   -0.000001

     Initial potential from superposition of free atoms

     Check: negative core charge=   -0.000001

     Initial potential from superposition of free atoms

     Check: negative core charge=   -0.000001

     Initial potential from superposition of free atoms

     starting charge      12.9973, renormalised to      13.0000

     starting charge      12.9973, renormalised to      13.0000

     starting charge      12.9973, renormalised to      13.0000

     Check: negative core charge=   -0.000001

     Initial potential from superposition of free atoms

     starting charge      12.9973, renormalised to      13.0000
     Starting wfcs are   13 randomized atomic wfcs
     Starting wfcs are   13 randomized atomic wfcs
     Starting wfcs are   13 randomized atomic wfcs
     Starting wfcs are   13 randomized atomic wfcs

     total cpu time spent up to now is        0.6 secs

     Self-consistent Calculation

     iteration #  1     ecut=    70.00 Ry     beta= 0.70

     total cpu time spent up to now is        0.6 secs

     Self-consistent Calculation
     Davidson diagonalization with overlap

     iteration #  1     ecut=    70.00 Ry     beta= 0.70

     total cpu time spent up to now is        0.6 secs

     Self-consistent Calculation
     Davidson diagonalization with overlap

     iteration #  1     ecut=    70.00 Ry     beta= 0.70
     Davidson diagonalization with overlap

     total cpu time spent up to now is        0.6 secs

     Self-consistent Calculation

     iteration #  1     ecut=    70.00 Ry     beta= 0.70
     Davidson diagonalization with overlap
     ethr =  1.00E-02,  avg # of iterations =  3.5
     ethr =  1.00E-02,  avg # of iterations =  3.5
     ethr =  1.00E-02,  avg # of iterations =  3.5
     ethr =  1.00E-02,  avg # of iterations =  3.5

     Threshold (ethr) on eigenvalues was too large:
     Diagonalizing with lowered threshold

     Davidson diagonalization with overlap

     Threshold (ethr) on eigenvalues was too large:
     Diagonalizing with lowered threshold

     Davidson diagonalization with overlap

     Threshold (ethr) on eigenvalues was too large:
     Diagonalizing with lowered threshold

     Davidson diagonalization with overlap

     Threshold (ethr) on eigenvalues was too large:
     Diagonalizing with lowered threshold

     Davidson diagonalization with overlap
     ethr =  6.61E-04,  avg # of iterations =  1.0
     ethr =  6.61E-04,  avg # of iterations =  1.0
     ethr =  6.61E-04,  avg # of iterations =  1.0
     ethr =  6.61E-04,  avg # of iterations =  1.0

     total cpu time spent up to now is        2.4 secs

     total energy              =    -117.91242075 Ry
     estimated scf accuracy    <       0.08820946 Ry

     iteration #  2     ecut=    70.00 Ry     beta= 0.70
     Davidson diagonalization with overlap

     total cpu time spent up to now is        2.4 secs

     total energy              =    -117.91242075 Ry
     estimated scf accuracy    <       0.08820946 Ry

     iteration #  2     ecut=    70.00 Ry     beta= 0.70
     Davidson diagonalization with overlap

     total cpu time spent up to now is        2.4 secs

     total energy              =    -117.91242075 Ry
     estimated scf accuracy    <       0.08820946 Ry

     iteration #  2     ecut=    70.00 Ry     beta= 0.70
     Davidson diagonalization with overlap

     total cpu time spent up to now is        2.4 secs

     total energy              =    -117.91242075 Ry
     estimated scf accuracy    <       0.08820946 Ry

     iteration #  2     ecut=    70.00 Ry     beta= 0.70
     Davidson diagonalization with overlap
     ethr =  6.79E-04,  avg # of iterations =  2.0
     ethr =  6.79E-04,  avg # of iterations =  2.0
     ethr =  6.79E-04,  avg # of iterations =  2.0
     ethr =  6.79E-04,  avg # of iterations =  2.0

     total cpu time spent up to now is        3.3 secs

     total energy              =    -117.93246583 Ry
     estimated scf accuracy    <       0.00508062 Ry

     iteration #  3     ecut=    70.00 Ry     beta= 0.70
     Davidson diagonalization with overlap

     total cpu time spent up to now is        3.3 secs

     total energy              =    -117.93246583 Ry
     estimated scf accuracy    <       0.00508062 Ry

     iteration #  3     ecut=    70.00 Ry     beta= 0.70
     Davidson diagonalization with overlap

     total cpu time spent up to now is        3.3 secs

     total energy              =    -117.93246583 Ry
     estimated scf accuracy    <       0.00508062 Ry

     iteration #  3     ecut=    70.00 Ry     beta= 0.70
     Davidson diagonalization with overlap

     total cpu time spent up to now is        3.3 secs

     total energy              =    -117.93246583 Ry
     estimated scf accuracy    <       0.00508062 Ry

     iteration #  3     ecut=    70.00 Ry     beta= 0.70
     Davidson diagonalization with overlap
     ethr =  3.91E-05,  avg # of iterations =  2.8
     ethr =  3.91E-05,  avg # of iterations =  2.8
     ethr =  3.91E-05,  avg # of iterations =  2.8
     ethr =  3.91E-05,  avg # of iterations =  2.8

     total cpu time spent up to now is        4.3 secs

     total energy              =    -117.93325510 Ry
     estimated scf accuracy    <       0.00013735 Ry

     iteration #  4     ecut=    70.00 Ry     beta= 0.70
     Davidson diagonalization with overlap

     total cpu time spent up to now is        4.3 secs

     total energy              =    -117.93325510 Ry
     estimated scf accuracy    <       0.00013735 Ry

     iteration #  4     ecut=    70.00 Ry     beta= 0.70
     Davidson diagonalization with overlap

     total cpu time spent up to now is        4.3 secs

     total energy              =    -117.93325510 Ry
     estimated scf accuracy    <       0.00013735 Ry

     iteration #  4     ecut=    70.00 Ry     beta= 0.70
     Davidson diagonalization with overlap

     total cpu time spent up to now is        4.3 secs

     total energy              =    -117.93325510 Ry
     estimated scf accuracy    <       0.00013735 Ry

     iteration #  4     ecut=    70.00 Ry     beta= 0.70
     Davidson diagonalization with overlap
     ethr =  1.06E-06,  avg # of iterations =  3.2
     ethr =  1.06E-06,  avg # of iterations =  3.2
     ethr =  1.06E-06,  avg # of iterations =  3.2
     ethr =  1.06E-06,  avg # of iterations =  3.2

     total cpu time spent up to now is        5.2 secs

     total energy              =    -117.93326548 Ry
     estimated scf accuracy    <       0.00000666 Ry

     iteration #  5     ecut=    70.00 Ry     beta= 0.70
     Davidson diagonalization with overlap

     total cpu time spent up to now is        5.2 secs

     total energy              =    -117.93326548 Ry
     estimated scf accuracy    <       0.00000666 Ry

     iteration #  5     ecut=    70.00 Ry     beta= 0.70
     Davidson diagonalization with overlap

     total cpu time spent up to now is        5.2 secs

     total energy              =    -117.93326548 Ry
     estimated scf accuracy    <       0.00000666 Ry

     iteration #  5     ecut=    70.00 Ry     beta= 0.70
     Davidson diagonalization with overlap

     total cpu time spent up to now is        5.2 secs

     total energy              =    -117.93326548 Ry
     estimated scf accuracy    <       0.00000666 Ry

     iteration #  5     ecut=    70.00 Ry     beta= 0.70
     Davidson diagonalization with overlap
     ethr =  5.13E-08,  avg # of iterations =  2.1
     ethr =  5.13E-08,  avg # of iterations =  2.1
     ethr =  5.13E-08,  avg # of iterations =  2.1
     ethr =  5.13E-08,  avg # of iterations =  2.1

     total cpu time spent up to now is        6.1 secs

     total energy              =    -117.93326769 Ry
     estimated scf accuracy    <       0.00000225 Ry

     iteration #  6     ecut=    70.00 Ry     beta= 0.70
     Davidson diagonalization with overlap

     total cpu time spent up to now is        6.1 secs

     total energy              =    -117.93326769 Ry
     estimated scf accuracy    <       0.00000225 Ry

     iteration #  6     ecut=    70.00 Ry     beta= 0.70
     Davidson diagonalization with overlap

     total cpu time spent up to now is        6.2 secs

     total energy              =    -117.93326769 Ry
     estimated scf accuracy    <       0.00000225 Ry

     iteration #  6     ecut=    70.00 Ry     beta= 0.70
     Davidson diagonalization with overlap

     total cpu time spent up to now is        6.2 secs

     total energy              =    -117.93326769 Ry
     estimated scf accuracy    <       0.00000225 Ry

     iteration #  6     ecut=    70.00 Ry     beta= 0.70
     Davidson diagonalization with overlap
     ethr =  1.73E-08,  avg # of iterations =  2.1
     ethr =  1.73E-08,  avg # of iterations =  2.1
     ethr =  1.73E-08,  avg # of iterations =  2.1
     ethr =  1.73E-08,  avg # of iterations =  2.1

     total cpu time spent up to now is        7.1 secs

     total energy              =    -117.93326808 Ry
     estimated scf accuracy    <          3.8E-09 Ry

     iteration #  7     ecut=    70.00 Ry     beta= 0.70
     Davidson diagonalization with overlap

     total cpu time spent up to now is        7.1 secs

     total energy              =    -117.93326808 Ry
     estimated scf accuracy    <          3.8E-09 Ry

     iteration #  7     ecut=    70.00 Ry     beta= 0.70
     Davidson diagonalization with overlap

     total cpu time spent up to now is        7.1 secs

     total energy              =    -117.93326808 Ry
     estimated scf accuracy    <          3.8E-09 Ry

     iteration #  7     ecut=    70.00 Ry     beta= 0.70
     Davidson diagonalization with overlap

     total cpu time spent up to now is        7.2 secs

     total energy              =    -117.93326808 Ry
     estimated scf accuracy    <          3.8E-09 Ry

     iteration #  7     ecut=    70.00 Ry     beta= 0.70
     Davidson diagonalization with overlap
     ethr =  2.89E-11,  avg # of iterations =  3.8
     ethr =  2.89E-11,  avg # of iterations =  3.8
     ethr =  2.89E-11,  avg # of iterations =  3.8
     ethr =  2.89E-11,  avg # of iterations =  3.8

     total cpu time spent up to now is        8.2 secs

     total energy              =    -117.93326809 Ry
     estimated scf accuracy    <          4.2E-09 Ry

     iteration #  8     ecut=    70.00 Ry     beta= 0.70
     Davidson diagonalization with overlap

     total cpu time spent up to now is        8.2 secs

     total energy              =    -117.93326809 Ry
     estimated scf accuracy    <          4.2E-09 Ry

     iteration #  8     ecut=    70.00 Ry     beta= 0.70
     Davidson diagonalization with overlap

     total cpu time spent up to now is        8.2 secs

     total energy              =    -117.93326809 Ry
     estimated scf accuracy    <          4.2E-09 Ry

     iteration #  8     ecut=    70.00 Ry     beta= 0.70
     Davidson diagonalization with overlap

     total cpu time spent up to now is        8.3 secs

     total energy              =    -117.93326809 Ry
     estimated scf accuracy    <          4.2E-09 Ry

     iteration #  8     ecut=    70.00 Ry     beta= 0.70
     Davidson diagonalization with overlap
     ethr =  2.89E-11,  avg # of iterations =  2.0
     ethr =  2.89E-11,  avg # of iterations =  2.0
     ethr =  2.89E-11,  avg # of iterations =  2.0
     ethr =  2.89E-11,  avg # of iterations =  2.0

     total cpu time spent up to now is        9.1 secs

     total energy              =    -117.93326809 Ry
     estimated scf accuracy    <          2.0E-10 Ry

     iteration #  9     ecut=    70.00 Ry     beta= 0.70
     Davidson diagonalization with overlap

     total cpu time spent up to now is        9.1 secs

     total energy              =    -117.93326809 Ry
     estimated scf accuracy    <          2.0E-10 Ry

     iteration #  9     ecut=    70.00 Ry     beta= 0.70
     Davidson diagonalization with overlap

     total cpu time spent up to now is        9.1 secs

     total energy              =    -117.93326809 Ry
     estimated scf accuracy    <          2.0E-10 Ry

     iteration #  9     ecut=    70.00 Ry     beta= 0.70
     Davidson diagonalization with overlap

     total cpu time spent up to now is        9.2 secs

     total energy              =    -117.93326809 Ry
     estimated scf accuracy    <          2.0E-10 Ry

     iteration #  9     ecut=    70.00 Ry     beta= 0.70
     Davidson diagonalization with overlap
     ethr =  1.52E-12,  avg # of iterations =  3.6
     ethr =  1.52E-12,  avg # of iterations =  3.6
     ethr =  1.52E-12,  avg # of iterations =  3.6
     ethr =  1.52E-12,  avg # of iterations =  3.6

     total cpu time spent up to now is       10.1 secs

     total energy              =    -117.93326809 Ry
     estimated scf accuracy    <          1.7E-09 Ry

     iteration # 10     ecut=    70.00 Ry     beta= 0.70
     Davidson diagonalization with overlap

     total cpu time spent up to now is       10.2 secs

     total energy              =    -117.93326809 Ry
     estimated scf accuracy    <          1.7E-09 Ry

     iteration # 10     ecut=    70.00 Ry     beta= 0.70
     Davidson diagonalization with overlap

     total cpu time spent up to now is       10.2 secs

     total energy              =    -117.93326809 Ry
     estimated scf accuracy    <          1.7E-09 Ry

     iteration # 10     ecut=    70.00 Ry     beta= 0.70
     Davidson diagonalization with overlap

     total cpu time spent up to now is       10.2 secs

     total energy              =    -117.93326809 Ry
     estimated scf accuracy    <          1.7E-09 Ry

     iteration # 10     ecut=    70.00 Ry     beta= 0.70
     Davidson diagonalization with overlap
     ethr =  1.52E-12,  avg # of iterations =  3.1
     ethr =  1.52E-12,  avg # of iterations =  3.1
     ethr =  1.52E-12,  avg # of iterations =  3.1
     ethr =  1.52E-12,  avg # of iterations =  3.1

     total cpu time spent up to now is       11.2 secs

     End of self-consistent calculation

          k = 0.0000 0.0000 0.0000 (  1205 PWs)   bands (ev):

   -36.3272 -11.6317 -11.6317 -11.6317  12.1103  18.3933  18.3933  18.3933
    21.3104  21.3104  32.2198

          k = 0.0000-0.0833 0.0833 (  1203 PWs)   bands (ev):

   -36.3109 -11.7305 -11.6617 -11.6325  12.3948  18.2186  18.3466  18.6680
    21.0560  21.3120  32.4479

          k = 0.0000-0.1667 0.1667 (  1194 PWs)   bands (ev):

   -36.2660 -11.9943 -11.7428 -11.6348  13.1553  17.7796  18.1300  19.4686
    20.7242  21.3453  32.8100

          k = 0.0000-0.2500 0.2500 (  1188 PWs)   bands (ev):

   -36.2041 -12.3420 -11.8517 -11.6380  14.0462  17.2507  17.9259  20.7191
    20.7939  21.4631  32.3768

          k = 0.0000-0.3333 0.3333 (  1200 PWs)   bands (ev):

   -36.1414 -12.6767 -11.9584 -11.6414  14.4565  16.7826  18.4501  21.1212
    21.6785  22.2605  31.1489

          k = 0.0000-0.4167 0.4167 (  1208 PWs)   bands (ev):

   -36.0950 -12.9144 -12.0352 -11.6439  14.3799  16.4698  19.6139  21.3656
    21.9181  23.7414  30.0602

          k = 0.0000 0.5000-0.5000 (  1204 PWs)   bands (ev):

   -36.0779 -13.0000 -12.0631 -11.6448  14.2996  16.3607  20.3265  21.3463
    22.0290  24.4281  30.1584

          k =-0.0833-0.0833 0.1667 (  1197 PWs)   bands (ev):

   -36.2803 -11.9117 -11.6950 -11.6564  12.9235  17.9905  18.0919  19.2552
    20.6980  21.3984  32.8606

          k =-0.0833-0.1667 0.2500 (  1187 PWs)   bands (ev):

   -36.2268 -12.2051 -11.7931 -11.6684  13.8026  17.5158  17.7705  20.3310
    20.5194  21.5716  33.0824

          k =-0.0833-0.2500 0.3333 (  1202 PWs)   bands (ev):

   -36.1645 -12.5281 -11.9167 -11.6742  14.5408  17.0154  17.7930  20.7146
    21.7505  21.8430  31.9993

          k =-0.0833-0.3333 0.4167 (  1195 PWs)   bands (ev):

   -36.1098 -12.7980 -12.0235 -11.6785  14.6511  16.6403  18.6236  21.1103
    21.9824  23.4240  30.7437

          k =-0.0833 0.5833-0.5000 (  1199 PWs)   bands (ev):

   -36.0780 -12.9504 -12.0846 -11.6809  14.5229  16.4416  19.5620  21.2614
    22.2588  24.6262  29.9650

          k =-0.1667-0.1667 0.3333 (  1198 PWs)   bands (ev):

   -36.1729 -12.4558 -11.8911 -11.7158  14.6574  17.1734  17.3804  20.4335
    21.7124  21.9305  32.7633

          k =-0.1667-0.2500 0.4167 (  1192 PWs)   bands (ev):

   -36.1184 -12.6793 -12.0344 -11.7379  15.1678  16.7912  17.6092  20.7004
    22.0517  23.4987  31.3788

          k =-0.1667 0.6667-0.5000 (  1198 PWs)   bands (ev):

   -36.0782 -12.8309 -12.1534 -11.7478  15.1124  16.6015  18.3398  21.0653
    22.2207  25.1443  30.0384

          k =-0.1667 0.5833-0.4167 (  1200 PWs)   bands (ev):

   -36.0634 -12.8843 -12.1987 -11.7508  15.0283  16.5412  18.7323  21.1575
    22.4127  25.9412  29.2834

          k =-0.2500 0.7500-0.5000 (  1203 PWs)   bands (ev):

   -36.0783 -12.7527 -12.2105 -11.7770  15.5909  16.6352  17.6849  20.9563
    22.1230  25.4167  30.1069

          k =-0.2500 0.6667-0.4167 (  1202 PWs)   bands (ev):

   -36.0550 -12.7547 -12.3594 -11.7925  15.6359  16.7017  17.8195  21.3007
    22.1542  27.1204  28.8189

          k =-0.3333 0.6667-0.3333 (  1208 PWs)   bands (ev):

   -36.0465 -12.5828 -12.5828 -11.8058  15.8494  17.1650  17.1650  21.7881
    21.7881  28.2231  29.1148

          k = 0.0000 0.0000 0.1667 (  1205 PWs)   bands (ev):

   -36.2949 -11.7658 -11.6921 -11.6921  12.6718  18.3457  18.3457  18.6504
    20.4913  21.5970  32.9998

          k = 0.0000-0.0833 0.2500 (  1193 PWs)   bands (ev):

   -36.2508 -12.0011 -11.7743 -11.7107  13.4131  18.0125  18.1992  19.3683
    19.9111  21.8254  33.4537

          k = 0.0000-0.1667 0.3333 (  1197 PWs)   bands (ev):

   -36.1901 -12.3352 -11.8845 -11.7116  14.2917  17.5112  17.8483  20.0008
    20.6189  22.0162  32.7004

          k = 0.0000-0.2500 0.4167 (  1191 PWs)   bands (ev):

   -36.1286 -12.6588 -11.9925 -11.7111  14.7075  17.0602  18.0259  20.5368
    22.1717  22.2317  31.3336

          k = 0.0000-0.3333 0.5000 (  1196 PWs)   bands (ev):

   -36.0832 -12.8891 -12.0702 -11.7106  14.6157  16.7572  18.7490  20.8586
    22.7504  23.6718  30.4050

          k = 0.0000 0.5833-0.4167 (  1204 PWs)   bands (ev):

   -36.0664 -12.9721 -12.0984 -11.7104  14.5263  16.6512  19.1767  20.7951
    23.2092  24.3721  29.9450

          k =-0.0833-0.0833 0.3333 (  1195 PWs)   bands (ev):

   -36.1995 -12.2299 -11.8677 -11.7663  14.2289  17.7715  17.9392  19.5151
    20.2313  22.1406  33.5056

          k =-0.0833-0.1667 0.4167 (  1206 PWs)   bands (ev):

   -36.1395 -12.5145 -11.9935 -11.7802  14.9562  17.2214  17.7627  19.8356
    21.5855  22.4432  32.0385

          k =-0.0833-0.2500 0.5000 (  1202 PWs)   bands (ev):

   -36.0871 -12.7593 -12.1052 -11.7818  15.0820  17.0229  17.8794  20.3846
    22.4127  23.6230  30.9077

          k =-0.0833 0.6667-0.4167 (  1193 PWs)   bands (ev):

   -36.0565 -12.8987 -12.1693 -11.7813  14.9292  16.9306  18.2494  20.4888
    23.1200  24.9837  29.8597

          k =-0.1667 0.1667 0.1667 (  1190 PWs)   bands (ev):

   -36.2402 -12.1628 -11.7031 -11.7031  13.6274  17.5760  17.5760  20.3538
    21.0844  21.0844  33.3383

          k =-0.1667-0.1667 0.5000 (  1194 PWs)   bands (ev):

   -36.0885 -12.6759 -12.1513 -11.8124  15.5271  16.6653  17.8655  20.0975
    22.0997  23.7757  31.1699

          k =-0.1667 0.7500-0.4167 (  1202 PWs)   bands (ev):

   -36.0508 -12.7783 -12.2940 -11.8213  15.6149  16.6765  17.7132  20.5906
    22.3636  25.6871  29.9091

          k =-0.1667 0.6667-0.3333 (  1208 PWs)   bands (ev):

   -36.0370 -12.8116 -12.3514 -11.8229  15.5256  16.9203  17.5097  20.7373
    22.6873  26.8529  28.9990

          k =-0.2500 0.2500 0.1667 (  1196 PWs)   bands (ev):

   -36.1851 -12.4392 -11.8262 -11.7141  14.5501  17.0650  17.2588  21.0295
    21.4386  21.8196  33.0417

          k =-0.2500 0.7500-0.3333 (  1204 PWs)   bands (ev):

   -36.0299 -12.7046 -12.4992 -11.8331  16.1623  16.5224  17.1486  21.3043
    22.1160  27.8690  28.7839

          k =-0.3333 0.3333 0.1667 (  1204 PWs)   bands (ev):

   -36.1293 -12.6842 -11.9728 -11.7253  15.0373  16.6644  17.6621  21.2335
    21.7368  23.4842  31.7044

          k =-0.3333 0.2500 0.2500 (  1200 PWs)   bands (ev):

   -36.1365 -12.6316 -11.9231 -11.7859  15.4166  16.7738  16.9171  21.2136
    21.7299  23.5627  32.3265

          k = 0.5833-0.5833 0.1667 (  1196 PWs)   bands (ev):

   -36.0882 -12.8514 -12.0874 -11.7335  14.9441  16.4138  18.7753  21.4579
    21.9680  24.9767  30.2947

          k = 0.5833-0.6667 0.2500 (  1195 PWs)   bands (ev):

   -36.0941 -12.7490 -12.0860 -11.8176  15.6287  16.5347  17.5517  21.4326
    21.9807  25.3174  30.5761

          k = 0.5000-0.5000 0.1667 (  1192 PWs)   bands (ev):

   -36.0730 -12.9107 -12.1303 -11.7365  14.8551  16.3289  19.4003  21.5219
    22.0620  25.6292  29.4505

          k = 0.5000-0.5833 0.2500 (  1196 PWs)   bands (ev):

   -36.0695 -12.7939 -12.2076 -11.8309  15.4913  16.4213  18.4159  21.6235
    22.1013  26.5871  29.0031

          k = 0.5000-0.6667 0.3333 (  1196 PWs)   bands (ev):

   -36.0682 -12.7111 -12.2692 -11.8741  15.8620  16.7322  17.6180  21.6537
    22.0851  27.0624  28.9454

          k = 0.4167-0.5833 0.3333 (  1199 PWs)   bands (ev):

   -36.0587 -12.6434 -12.3953 -11.8903  15.8639  16.8575  17.7361  21.8166
    22.0633  28.1318  28.1712

          k = 0.0000 0.0000 0.3333 (  1204 PWs)   bands (ev):

   -36.2092 -12.0739 -11.8592 -11.8592  14.0956  18.4245  18.4245  18.7369
    19.3973  22.2578  34.5784

          k = 0.0000-0.0833 0.4167 (  1205 PWs)   bands (ev):

   -36.1517 -12.3248 -11.9730 -11.9008  14.9088  17.6031  18.2274  19.0560
    20.4121  22.5192  32.7981

          k = 0.0000-0.1667 0.5000 (  1196 PWs)   bands (ev):

   -36.0936 -12.6109 -12.0845 -11.8973  15.3224  17.1382  17.8621  19.7609
    21.9508  22.8839  31.7084

          k = 0.0000-0.2500 0.5833 (  1197 PWs)   bands (ev):

   -36.0507 -12.8195 -12.1647 -11.8898  15.1640  17.3882  17.5967  19.9711
    23.4882  23.9319  30.6055

          k = 0.0000 0.6667-0.3333 (  1198 PWs)   bands (ev):

   -36.0349 -12.8951 -12.1938 -11.8867  15.0385  17.5020  17.6083  19.8769
    24.2224  24.8108  29.6631

          k =-0.0833-0.0833 0.5000 (  1193 PWs)   bands (ev):

   -36.0961 -12.5084 -12.1077 -11.9590  15.5330  16.8218  18.4149  19.3296
    21.3888  22.8931  32.1412

          k =-0.0833-0.1667 0.5833 (  1199 PWs)   bands (ev):

   -36.0474 -12.6959 -12.2341 -11.9629  15.6710  16.5184  18.1542  19.9288
    22.3790  24.1295  31.2665

          k =-0.0833 0.7500-0.3333 (  1199 PWs)   bands (ev):

   -36.0191 -12.8084 -12.3062 -11.9586  15.4170  16.8183  17.8045  20.0962
    23.3347  25.8435  29.6623

          k =-0.1667 0.8333-0.3333 (  1204 PWs)   bands (ev):

   -36.0133 -12.7237 -12.4143 -11.9720  15.9785  16.1003  17.7831  20.7766
    22.4699  26.2322  29.9114

          k =-0.1667 0.7500-0.2500 (  1202 PWs)   bands (ev):

   -36.0008 -12.7107 -12.5069 -11.9711  15.8317  16.3328  17.4391  21.2282
    22.6030  27.9715  28.7436

          k = 0.6667-0.6667 0.3333 (  1175 PWs)   bands (ev):

   -36.0999 -12.7150 -11.9550 -11.9550  16.4264  16.5487  16.5487  21.7509
    21.7509  25.4444  31.3459

          k = 0.5833-0.5833 0.3333 (  1192 PWs)   bands (ev):

   -36.0730 -12.7027 -12.1555 -11.9783  16.2460  16.4477  17.4947  21.8661
    22.0406  27.0494  29.1485

          k = 0.5000-0.5000 0.3333 (  1192 PWs)   bands (ev):

   -36.0632 -12.6654 -12.2624 -11.9869  16.1467  16.4211  17.9781  21.9263
    22.1291  27.8414  28.1589

          k = 0.5000-0.5833 0.4167 (  1191 PWs)   bands (ev):

   -36.0609 -12.5578 -12.3118 -12.0770  16.3557  16.8691  17.3940  22.0488
    22.1241  27.8354  28.7005

          k = 0.0000 0.0000 0.5000 (  1196 PWs)   bands (ev):

   -36.0989 -12.3699 -12.0917 -12.0917  15.5340  16.9362  18.9922  18.9922
    20.5492  22.7878  32.6837

          k = 0.0000-0.0833 0.5833 (  1195 PWs)   bands (ev):

   -36.0455 -12.5513 -12.2077 -12.1377  15.7882  16.2300  19.0685  19.5703
    21.7347  23.2881  32.5198

          k = 0.0000-0.1667 0.6667 (  1199 PWs)   bands (ev):

   -36.0060 -12.7232 -12.2911 -12.1274  15.4445  16.1886  18.9180  19.7999
    23.2545  24.7195  30.7974

          k = 0.0000 0.7500-0.2500 (  1194 PWs)   bands (ev):

   -35.9915 -12.7881 -12.3213 -12.1206  15.2639  16.2353  18.8511  19.7798
    24.0253  26.0734  29.1919

          k =-0.0833-0.0833 0.6667 (  1194 PWs)   bands (ev):

   -36.0013 -12.6390 -12.3513 -12.1773  15.6233  15.7876  19.1469  20.3834
    22.4505  24.5103  31.5686

          k =-0.0833 0.8333-0.2500 (  1197 PWs)   bands (ev):

   -35.9756 -12.7040 -12.4454 -12.1716  15.3117  15.7136  18.9558  20.9267
    23.2339  26.5232  29.4482

          k =-0.1667 0.8333-0.1667 (  1204 PWs)   bands (ev):

   -35.9644 -12.6079 -12.6079 -12.1702  15.3976  15.3976  18.8246  22.3828
    22.3828  28.6873  28.7949

          k = 0.5000-0.5000 0.5000 (  1220 PWs)   bands (ev):

   -36.0582 -12.3274 -12.3274 -12.3274  16.9331  16.9331  16.9331  22.1632
    22.1632  27.5177  29.9813

          k = 0.0000 0.0000 0.6667 (  1192 PWs)   bands (ev):

   -35.9969 -12.5334 -12.3281 -12.3281  15.5004  15.6575  20.2396  20.2396
    21.9187  23.7950  32.9153

          k = 0.0000-0.0833 0.7500 (  1205 PWs)   bands (ev):

   -35.9610 -12.6267 -12.4145 -12.3562  15.0503  15.3251  20.5769  20.8127
    23.0592  25.1642  30.5208

          k = 0.0000 0.8333-0.1667 (  1210 PWs)   bands (ev):

   -35.9478 -12.6790 -12.4458 -12.3473  14.9008  15.1795  20.5880  20.9443
    23.8359  26.7929  28.5571

          k =-0.0833 0.9167-0.1667 (  1211 PWs)   bands (ev):

   -35.9376 -12.6233 -12.5314 -12.3721  14.8004  14.9325  20.6829  22.1938
    23.2829  26.8360  28.9915

          k = 0.0000 0.0000 0.8333 (  1212 PWs)   bands (ev):

   -35.9278 -12.5712 -12.5031 -12.5031  14.5953  14.7562  22.1219  22.1219
    23.1379  25.8393  29.2732

          k = 0.0000 0.9167-0.0833 (  1216 PWs)   bands (ev):

   -35.9156 -12.5976 -12.5352 -12.5092  14.4611  14.5147  22.4869  22.6492
    23.7018  27.0650  27.7238

          k = 0.0000 0.0000-1.0000 (  1168 PWs)   bands (ev):

   -35.9038 -12.5675 -12.5675 -12.5675  14.2876  14.2876  23.6537  23.6537
    23.6537  27.1211  27.1211

     the Fermi energy is    18.0406 ev

!    total energy              =    -117.93326809 Ry
     estimated scf accuracy    <          1.6E-12 Ry
     smearing contrib. (-TS)   =       0.00046173 Ry
     internal energy E=F+TS    =    -117.93372982 Ry

     The total energy is F=E-TS. E is the sum of the following terms:
     one-electron contribution =     -15.73611492 Ry
     hartree contribution      =      14.89280212 Ry
     xc contribution           =     -18.44880468 Ry
     ewald contribution        =     -98.64161234 Ry

     convergence has been achieved in  10 iterations

     Writing all to output data dir ./tmp/Nb_k12.save/

     init_run     :      0.52s CPU      0.55s WALL (       1 calls)
     electrons    :     10.29s CPU     10.56s WALL (       1 calls)

     Called by init_run:
     wfcinit      :      0.38s CPU      0.39s WALL (       1 calls)
     potinit      :      0.01s CPU      0.01s WALL (       1 calls)
     hinit0       :      0.12s CPU      0.12s WALL (       1 calls)

     Called by electrons:
     c_bands      :      8.54s CPU      8.78s WALL (      11 calls)
     sum_band     :      1.62s CPU      1.65s WALL (      11 calls)
     v_of_rho     :      0.06s CPU      0.06s WALL (      11 calls)
     newd         :      0.07s CPU      0.09s WALL (      11 calls)
     mix_rho      :      0.01s CPU      0.01s WALL (      11 calls)

     Called by c_bands:
     init_us_2    :      0.21s CPU      0.22s WALL (    1656 calls)
     init_us_2:cp :      0.21s CPU      0.22s WALL (    1656 calls)
     cegterg      :      8.22s CPU      8.44s WALL (     792 calls)

     Called by *egterg:
     cdiaghg      :      0.18s CPU      0.19s WALL (    2827 calls)
     h_psi        :      7.42s CPU      7.60s WALL (    2971 calls)
     s_psi        :      0.14s CPU      0.15s WALL (    2971 calls)
     g_psi        :      0.02s CPU      0.02s WALL (    2107 calls)

     Called by h_psi:
     h_psi:calbec :      0.17s CPU      0.18s WALL (    2971 calls)
     vloc_psi     :      7.08s CPU      7.25s WALL (    2971 calls)
     add_vuspsi   :      0.15s CPU      0.15s WALL (    2971 calls)

     General routines
     calbec       :      0.23s CPU      0.23s WALL (    3763 calls)
     fft          :      0.03s CPU      0.03s WALL (     122 calls)
     ffts         :      0.00s CPU      0.00s WALL (      11 calls)
     fftw         :      7.63s CPU      7.79s WALL (   54600 calls)


     PWSCF        :     10.86s CPU     11.20s WALL


   This run was terminated on:  21:27:50   6Mar2026            

=------------------------------------------------------------------------------=
   JOB DONE.
=------------------------------------------------------------------------------=
Note: The following floating-point exceptions are signalling: IEEE_INVALID_FLAG IEEE_DIVIDE_BY_ZERO IEEE_UNDERFLOW_FLAG

     total cpu time spent up to now is       11.2 secs

     End of self-consistent calculation

          k = 0.0000 0.0000 0.0000 (  1205 PWs)   bands (ev):

   -36.3272 -11.6317 -11.6317 -11.6317  12.1103  18.3933  18.3933  18.3933
    21.3104  21.3104  32.2198

          k = 0.0000-0.0833 0.0833 (  1203 PWs)   bands (ev):

   -36.3109 -11.7305 -11.6617 -11.6325  12.3948  18.2186  18.3466  18.6680
    21.0560  21.3120  32.4479

          k = 0.0000-0.1667 0.1667 (  1194 PWs)   bands (ev):

   -36.2660 -11.9943 -11.7428 -11.6348  13.1553  17.7796  18.1300  19.4686
    20.7242  21.3453  32.8100

          k = 0.0000-0.2500 0.2500 (  1188 PWs)   bands (ev):

   -36.2041 -12.3420 -11.8517 -11.6380  14.0462  17.2507  17.9259  20.7191
    20.7939  21.4631  32.3768

          k = 0.0000-0.3333 0.3333 (  1200 PWs)   bands (ev):

   -36.1414 -12.6767 -11.9584 -11.6414  14.4565  16.7826  18.4501  21.1212
    21.6785  22.2605  31.1489

          k = 0.0000-0.4167 0.4167 (  1208 PWs)   bands (ev):

   -36.0950 -12.9144 -12.0352 -11.6439  14.3799  16.4698  19.6139  21.3656
    21.9181  23.7414  30.0602

          k = 0.0000 0.5000-0.5000 (  1204 PWs)   bands (ev):

   -36.0779 -13.0000 -12.0631 -11.6448  14.2996  16.3607  20.3265  21.3463
    22.0290  24.4281  30.1584

          k =-0.0833-0.0833 0.1667 (  1197 PWs)   bands (ev):

   -36.2803 -11.9117 -11.6950 -11.6564  12.9235  17.9905  18.0919  19.2552
    20.6980  21.3984  32.8606

          k =-0.0833-0.1667 0.2500 (  1187 PWs)   bands (ev):

   -36.2268 -12.2051 -11.7931 -11.6684  13.8026  17.5158  17.7705  20.3310
    20.5194  21.5716  33.0824

          k =-0.0833-0.2500 0.3333 (  1202 PWs)   bands (ev):

   -36.1645 -12.5281 -11.9167 -11.6742  14.5408  17.0154  17.7930  20.7146
    21.7505  21.8430  31.9993

          k =-0.0833-0.3333 0.4167 (  1195 PWs)   bands (ev):

   -36.1098 -12.7980 -12.0235 -11.6785  14.6511  16.6403  18.6236  21.1103
    21.9824  23.4240  30.7437

          k =-0.0833 0.5833-0.5000 (  1199 PWs)   bands (ev):

   -36.0780 -12.9504 -12.0846 -11.6809  14.5229  16.4416  19.5620  21.2614
    22.2588  24.6262  29.9650

          k =-0.1667-0.1667 0.3333 (  1198 PWs)   bands (ev):

   -36.1729 -12.4558 -11.8911 -11.7158  14.6574  17.1734  17.3804  20.4335
    21.7124  21.9305  32.7633

          k =-0.1667-0.2500 0.4167 (  1192 PWs)   bands (ev):

   -36.1184 -12.6793 -12.0344 -11.7379  15.1678  16.7912  17.6092  20.7004
    22.0517  23.4987  31.3788

          k =-0.1667 0.6667-0.5000 (  1198 PWs)   bands (ev):

   -36.0782 -12.8309 -12.1534 -11.7478  15.1124  16.6015  18.3398  21.0653
    22.2207  25.1443  30.0384

          k =-0.1667 0.5833-0.4167 (  1200 PWs)   bands (ev):

   -36.0634 -12.8843 -12.1987 -11.7508  15.0283  16.5412  18.7323  21.1575
    22.4127  25.9412  29.2834

          k =-0.2500 0.7500-0.5000 (  1203 PWs)   bands (ev):

   -36.0783 -12.7527 -12.2105 -11.7770  15.5909  16.6352  17.6849  20.9563
    22.1230  25.4167  30.1069

          k =-0.2500 0.6667-0.4167 (  1202 PWs)   bands (ev):

   -36.0550 -12.7547 -12.3594 -11.7925  15.6359  16.7017  17.8195  21.3007
    22.1542  27.1204  28.8189

          k =-0.3333 0.6667-0.3333 (  1208 PWs)   bands (ev):

   -36.0465 -12.5828 -12.5828 -11.8058  15.8494  17.1650  17.1650  21.7881
    21.7881  28.2231  29.1148

          k = 0.0000 0.0000 0.1667 (  1205 PWs)   bands (ev):

   -36.2949 -11.7658 -11.6921 -11.6921  12.6718  18.3457  18.3457  18.6504
    20.4913  21.5970  32.9998

          k = 0.0000-0.0833 0.2500 (  1193 PWs)   bands (ev):

   -36.2508 -12.0011 -11.7743 -11.7107  13.4131  18.0125  18.1992  19.3683
    19.9111  21.8254  33.4537

          k = 0.0000-0.1667 0.3333 (  1197 PWs)   bands (ev):

   -36.1901 -12.3352 -11.8845 -11.7116  14.2917  17.5112  17.8483  20.0008
    20.6189  22.0162  32.7004

          k = 0.0000-0.2500 0.4167 (  1191 PWs)   bands (ev):

   -36.1286 -12.6588 -11.9925 -11.7111  14.7075  17.0602  18.0259  20.5368
    22.1717  22.2317  31.3336

          k = 0.0000-0.3333 0.5000 (  1196 PWs)   bands (ev):

   -36.0832 -12.8891 -12.0702 -11.7106  14.6157  16.7572  18.7490  20.8586
    22.7504  23.6718  30.4050

          k = 0.0000 0.5833-0.4167 (  1204 PWs)   bands (ev):

   -36.0664 -12.9721 -12.0984 -11.7104  14.5263  16.6512  19.1767  20.7951
    23.2092  24.3721  29.9450

          k =-0.0833-0.0833 0.3333 (  1195 PWs)   bands (ev):

   -36.1995 -12.2299 -11.8677 -11.7663  14.2289  17.7715  17.9392  19.5151
    20.2313  22.1406  33.5056

          k =-0.0833-0.1667 0.4167 (  1206 PWs)   bands (ev):

   -36.1395 -12.5145 -11.9935 -11.7802  14.9562  17.2214  17.7627  19.8356
    21.5855  22.4432  32.0385

          k =-0.0833-0.2500 0.5000 (  1202 PWs)   bands (ev):

   -36.0871 -12.7593 -12.1052 -11.7818  15.0820  17.0229  17.8794  20.3846
    22.4127  23.6230  30.9077

          k =-0.0833 0.6667-0.4167 (  1193 PWs)   bands (ev):

   -36.0565 -12.8987 -12.1693 -11.7813  14.9292  16.9306  18.2494  20.4888
    23.1200  24.9837  29.8597

          k =-0.1667 0.1667 0.1667 (  1190 PWs)   bands (ev):

   -36.2402 -12.1628 -11.7031 -11.7031  13.6274  17.5760  17.5760  20.3538
    21.0844  21.0844  33.3383

          k =-0.1667-0.1667 0.5000 (  1194 PWs)   bands (ev):

   -36.0885 -12.6759 -12.1513 -11.8124  15.5271  16.6653  17.8655  20.0975
    22.0997  23.7757  31.1699

          k =-0.1667 0.7500-0.4167 (  1202 PWs)   bands (ev):

   -36.0508 -12.7783 -12.2940 -11.8213  15.6149  16.6765  17.7132  20.5906
    22.3636  25.6871  29.9091

          k =-0.1667 0.6667-0.3333 (  1208 PWs)   bands (ev):

   -36.0370 -12.8116 -12.3514 -11.8229  15.5256  16.9203  17.5097  20.7373
    22.6873  26.8529  28.9990

          k =-0.2500 0.2500 0.1667 (  1196 PWs)   bands (ev):

   -36.1851 -12.4392 -11.8262 -11.7141  14.5501  17.0650  17.2588  21.0295
    21.4386  21.8196  33.0417

          k =-0.2500 0.7500-0.3333 (  1204 PWs)   bands (ev):

   -36.0299 -12.7046 -12.4992 -11.8331  16.1623  16.5224  17.1486  21.3043
    22.1160  27.8690  28.7839

          k =-0.3333 0.3333 0.1667 (  1204 PWs)   bands (ev):

   -36.1293 -12.6842 -11.9728 -11.7253  15.0373  16.6644  17.6621  21.2335
    21.7368  23.4842  31.7044

          k =-0.3333 0.2500 0.2500 (  1200 PWs)   bands (ev):

   -36.1365 -12.6316 -11.9231 -11.7859  15.4166  16.7738  16.9171  21.2136
    21.7299  23.5627  32.3265

          k = 0.5833-0.5833 0.1667 (  1196 PWs)   bands (ev):

   -36.0882 -12.8514 -12.0874 -11.7335  14.9441  16.4138  18.7753  21.4579
    21.9680  24.9767  30.2947

          k = 0.5833-0.6667 0.2500 (  1195 PWs)   bands (ev):

   -36.0941 -12.7490 -12.0860 -11.8176  15.6287  16.5347  17.5517  21.4326
    21.9807  25.3174  30.5761

          k = 0.5000-0.5000 0.1667 (  1192 PWs)   bands (ev):

   -36.0730 -12.9107 -12.1303 -11.7365  14.8551  16.3289  19.4003  21.5219
    22.0620  25.6292  29.4505

          k = 0.5000-0.5833 0.2500 (  1196 PWs)   bands (ev):

   -36.0695 -12.7939 -12.2076 -11.8309  15.4913  16.4213  18.4159  21.6235
    22.1013  26.5871  29.0031

          k = 0.5000-0.6667 0.3333 (  1196 PWs)   bands (ev):

   -36.0682 -12.7111 -12.2692 -11.8741  15.8620  16.7322  17.6180  21.6537
    22.0851  27.0624  28.9454

          k = 0.4167-0.5833 0.3333 (  1199 PWs)   bands (ev):

   -36.0587 -12.6434 -12.3953 -11.8903  15.8639  16.8575  17.7361  21.8166
    22.0633  28.1318  28.1712

          k = 0.0000 0.0000 0.3333 (  1204 PWs)   bands (ev):

   -36.2092 -12.0739 -11.8592 -11.8592  14.0956  18.4245  18.4245  18.7369
    19.3973  22.2578  34.5784

          k = 0.0000-0.0833 0.4167 (  1205 PWs)   bands (ev):

   -36.1517 -12.3248 -11.9730 -11.9008  14.9088  17.6031  18.2274  19.0560
    20.4121  22.5192  32.7981

          k = 0.0000-0.1667 0.5000 (  1196 PWs)   bands (ev):

   -36.0936 -12.6109 -12.0845 -11.8973  15.3224  17.1382  17.8621  19.7609
    21.9508  22.8839  31.7084

          k = 0.0000-0.2500 0.5833 (  1197 PWs)   bands (ev):

   -36.0507 -12.8195 -12.1647 -11.8898  15.1640  17.3882  17.5967  19.9711
    23.4882  23.9319  30.6055

          k = 0.0000 0.6667-0.3333 (  1198 PWs)   bands (ev):

   -36.0349 -12.8951 -12.1938 -11.8867  15.0385  17.5020  17.6083  19.8769
    24.2224  24.8108  29.6631

          k =-0.0833-0.0833 0.5000 (  1193 PWs)   bands (ev):

   -36.0961 -12.5084 -12.1077 -11.9590  15.5330  16.8218  18.4149  19.3296
    21.3888  22.8931  32.1412

          k =-0.0833-0.1667 0.5833 (  1199 PWs)   bands (ev):

   -36.0474 -12.6959 -12.2341 -11.9629  15.6710  16.5184  18.1542  19.9288
    22.3790  24.1295  31.2665

          k =-0.0833 0.7500-0.3333 (  1199 PWs)   bands (ev):

   -36.0191 -12.8084 -12.3062 -11.9586  15.4170  16.8183  17.8045  20.0962
    23.3347  25.8435  29.6623

          k =-0.1667 0.8333-0.3333 (  1204 PWs)   bands (ev):

   -36.0133 -12.7237 -12.4143 -11.9720  15.9785  16.1003  17.7831  20.7766
    22.4699  26.2322  29.9114

          k =-0.1667 0.7500-0.2500 (  1202 PWs)   bands (ev):

   -36.0008 -12.7107 -12.5069 -11.9711  15.8317  16.3328  17.4391  21.2282
    22.6030  27.9715  28.7436

          k = 0.6667-0.6667 0.3333 (  1175 PWs)   bands (ev):

   -36.0999 -12.7150 -11.9550 -11.9550  16.4264  16.5487  16.5487  21.7509
    21.7509  25.4444  31.3459

          k = 0.5833-0.5833 0.3333 (  1192 PWs)   bands (ev):

   -36.0730 -12.7027 -12.1555 -11.9783  16.2460  16.4477  17.4947  21.8661
    22.0406  27.0494  29.1485

          k = 0.5000-0.5000 0.3333 (  1192 PWs)   bands (ev):

   -36.0632 -12.6654 -12.2624 -11.9869  16.1467  16.4211  17.9781  21.9263
    22.1291  27.8414  28.1589

          k = 0.5000-0.5833 0.4167 (  1191 PWs)   bands (ev):

   -36.0609 -12.5578 -12.3118 -12.0770  16.3557  16.8691  17.3940  22.0488
    22.1241  27.8354  28.7005

          k = 0.0000 0.0000 0.5000 (  1196 PWs)   bands (ev):

   -36.0989 -12.3699 -12.0917 -12.0917  15.5340  16.9362  18.9922  18.9922
    20.5492  22.7878  32.6837

          k = 0.0000-0.0833 0.5833 (  1195 PWs)   bands (ev):

   -36.0455 -12.5513 -12.2077 -12.1377  15.7882  16.2300  19.0685  19.5703
    21.7347  23.2881  32.5198

          k = 0.0000-0.1667 0.6667 (  1199 PWs)   bands (ev):

   -36.0060 -12.7232 -12.2911 -12.1274  15.4445  16.1886  18.9180  19.7999
    23.2545  24.7195  30.7974

          k = 0.0000 0.7500-0.2500 (  1194 PWs)   bands (ev):

   -35.9915 -12.7881 -12.3213 -12.1206  15.2639  16.2353  18.8511  19.7798
    24.0253  26.0734  29.1919

          k =-0.0833-0.0833 0.6667 (  1194 PWs)   bands (ev):

   -36.0013 -12.6390 -12.3513 -12.1773  15.6233  15.7876  19.1469  20.3834
    22.4505  24.5103  31.5686

          k =-0.0833 0.8333-0.2500 (  1197 PWs)   bands (ev):

   -35.9756 -12.7040 -12.4454 -12.1716  15.3117  15.7136  18.9558  20.9267
    23.2339  26.5232  29.4482

          k =-0.1667 0.8333-0.1667 (  1204 PWs)   bands (ev):

   -35.9644 -12.6079 -12.6079 -12.1702  15.3976  15.3976  18.8246  22.3828
    22.3828  28.6873  28.7949

          k = 0.5000-0.5000 0.5000 (  1220 PWs)   bands (ev):

   -36.0582 -12.3274 -12.3274 -12.3274  16.9331  16.9331  16.9331  22.1632
    22.1632  27.5177  29.9813

          k = 0.0000 0.0000 0.6667 (  1192 PWs)   bands (ev):

   -35.9969 -12.5334 -12.3281 -12.3281  15.5004  15.6575  20.2396  20.2396
    21.9187  23.7950  32.9153

          k = 0.0000-0.0833 0.7500 (  1205 PWs)   bands (ev):

   -35.9610 -12.6267 -12.4145 -12.3562  15.0503  15.3251  20.5769  20.8127
    23.0592  25.1642  30.5208

          k = 0.0000 0.8333-0.1667 (  1210 PWs)   bands (ev):

   -35.9478 -12.6790 -12.4458 -12.3473  14.9008  15.1795  20.5880  20.9443
    23.8359  26.7929  28.5571

          k =-0.0833 0.9167-0.1667 (  1211 PWs)   bands (ev):

   -35.9376 -12.6233 -12.5314 -12.3721  14.8004  14.9325  20.6829  22.1938
    23.2829  26.8360  28.9915

          k = 0.0000 0.0000 0.8333 (  1212 PWs)   bands (ev):

   -35.9278 -12.5712 -12.5031 -12.5031  14.5953  14.7562  22.1219  22.1219
    23.1379  25.8393  29.2732

          k = 0.0000 0.9167-0.0833 (  1216 PWs)   bands (ev):

   -35.9156 -12.5976 -12.5352 -12.5092  14.4611  14.5147  22.4869  22.6492
    23.7018  27.0650  27.7238

          k = 0.0000 0.0000-1.0000 (  1168 PWs)   bands (ev):

   -35.9038 -12.5675 -12.5675 -12.5675  14.2876  14.2876  23.6537  23.6537
    23.6537  27.1211  27.1211

     the Fermi energy is    18.0406 ev

!    total energy              =    -117.93326809 Ry
     estimated scf accuracy    <          1.6E-12 Ry
     smearing contrib. (-TS)   =       0.00046173 Ry
     internal energy E=F+TS    =    -117.93372982 Ry

     The total energy is F=E-TS. E is the sum of the following terms:
     one-electron contribution =     -15.73611492 Ry
     hartree contribution      =      14.89280212 Ry
     xc contribution           =     -18.44880468 Ry
     ewald contribution        =     -98.64161234 Ry

     convergence has been achieved in  10 iterations

     Writing all to output data dir ./tmp/Nb_k12.save/

     total cpu time spent up to now is       11.2 secs

     End of self-consistent calculation

          k = 0.0000 0.0000 0.0000 (  1205 PWs)   bands (ev):

   -36.3272 -11.6317 -11.6317 -11.6317  12.1103  18.3933  18.3933  18.3933
    21.3104  21.3104  32.2198

          k = 0.0000-0.0833 0.0833 (  1203 PWs)   bands (ev):

   -36.3109 -11.7305 -11.6617 -11.6325  12.3948  18.2186  18.3466  18.6680
    21.0560  21.3120  32.4479

          k = 0.0000-0.1667 0.1667 (  1194 PWs)   bands (ev):

   -36.2660 -11.9943 -11.7428 -11.6348  13.1553  17.7796  18.1300  19.4686
    20.7242  21.3453  32.8100

          k = 0.0000-0.2500 0.2500 (  1188 PWs)   bands (ev):

   -36.2041 -12.3420 -11.8517 -11.6380  14.0462  17.2507  17.9259  20.7191
    20.7939  21.4631  32.3768

          k = 0.0000-0.3333 0.3333 (  1200 PWs)   bands (ev):

   -36.1414 -12.6767 -11.9584 -11.6414  14.4565  16.7826  18.4501  21.1212
    21.6785  22.2605  31.1489

          k = 0.0000-0.4167 0.4167 (  1208 PWs)   bands (ev):

   -36.0950 -12.9144 -12.0352 -11.6439  14.3799  16.4698  19.6139  21.3656
    21.9181  23.7414  30.0602

          k = 0.0000 0.5000-0.5000 (  1204 PWs)   bands (ev):

   -36.0779 -13.0000 -12.0631 -11.6448  14.2996  16.3607  20.3265  21.3463
[...]
     internal energy E=F+TS    =    -117.93372982 Ry

     The total energy is F=E-TS. E is the sum of the following terms:
     one-electron contribution =     -15.73611492 Ry
     hartree contribution      =      14.89280212 Ry
     xc contribution           =     -18.44880468 Ry
     ewald contribution        =     -98.64161234 Ry

     convergence has been achieved in  10 iterations

     Writing all to output data dir ./tmp/Nb_k12.save/

     init_run     :      0.52s CPU      0.55s WALL (       1 calls)
     electrons    :     10.33s CPU     10.61s WALL (       1 calls)

     Called by init_run:
     wfcinit      :      0.38s CPU      0.39s WALL (       1 calls)
     potinit      :      0.01s CPU      0.01s WALL (       1 calls)
     hinit0       :      0.12s CPU      0.12s WALL (       1 calls)

     Called by electrons:
     c_bands      :      8.58s CPU      8.82s WALL (      11 calls)
     sum_band     :      1.62s CPU      1.65s WALL (      11 calls)
     v_of_rho     :      0.06s CPU      0.06s WALL (      11 calls)
     newd         :      0.07s CPU      0.09s WALL (      11 calls)
     mix_rho      :      0.01s CPU      0.01s WALL (      11 calls)

     Called by c_bands:
     init_us_2    :      0.21s CPU      0.22s WALL (    1656 calls)
     init_us_2:cp :      0.21s CPU      0.22s WALL (    1656 calls)
     cegterg      :      8.26s CPU      8.49s WALL (     792 calls)

     Called by *egterg:
     cdiaghg      :      0.19s CPU      0.19s WALL (    2827 calls)
     h_psi        :      7.45s CPU      7.64s WALL (    2971 calls)
     s_psi        :      0.14s CPU      0.15s WALL (    2971 calls)
     g_psi        :      0.02s CPU      0.02s WALL (    2107 calls)

     Called by h_psi:
     h_psi:calbec :      0.17s CPU      0.18s WALL (    2971 calls)
     vloc_psi     :      7.11s CPU      7.28s WALL (    2971 calls)
     add_vuspsi   :      0.15s CPU      0.15s WALL (    2971 calls)

     General routines
     calbec       :      0.23s CPU      0.24s WALL (    3763 calls)
     fft          :      0.03s CPU      0.03s WALL (     122 calls)
     ffts         :      0.00s CPU      0.00s WALL (      11 calls)
     fftw         :      7.67s CPU      7.83s WALL (   54600 calls)


     PWSCF        :     10.90s CPU     11.24s WALL


   This run was terminated on:  21:27:50   6Mar2026            

=------------------------------------------------------------------------------=
   JOB DONE.
=------------------------------------------------------------------------------=
Note: The following floating-point exceptions are signalling: IEEE_INVALID_FLAG IEEE_DIVIDE_BY_ZERO IEEE_UNDERFLOW_FLAG

     init_run     :      0.52s CPU      0.55s WALL (       1 calls)
     electrons    :     10.28s CPU     10.62s WALL (       1 calls)

     Called by init_run:
     wfcinit      :      0.38s CPU      0.39s WALL (       1 calls)
     potinit      :      0.01s CPU      0.01s WALL (       1 calls)
     hinit0       :      0.12s CPU      0.12s WALL (       1 calls)

     Called by electrons:
     c_bands      :      8.54s CPU      8.82s WALL (      11 calls)
     sum_band     :      1.63s CPU      1.66s WALL (      11 calls)
     v_of_rho     :      0.06s CPU      0.06s WALL (      11 calls)
     newd         :      0.07s CPU      0.09s WALL (      11 calls)
     mix_rho      :      0.01s CPU      0.01s WALL (      11 calls)

     Called by c_bands:
     init_us_2    :      0.21s CPU      0.22s WALL (    1656 calls)
     init_us_2:cp :      0.21s CPU      0.22s WALL (    1656 calls)
     cegterg      :      8.21s CPU      8.49s WALL (     792 calls)

     Called by *egterg:
     cdiaghg      :      0.19s CPU      0.19s WALL (    2827 calls)
     h_psi        :      7.41s CPU      7.63s WALL (    2971 calls)
     s_psi        :      0.14s CPU      0.15s WALL (    2971 calls)
     g_psi        :      0.02s CPU      0.02s WALL (    2107 calls)

     Called by h_psi:
     h_psi:calbec :      0.17s CPU      0.18s WALL (    2971 calls)
     vloc_psi     :      7.07s CPU      7.28s WALL (    2971 calls)
     add_vuspsi   :      0.15s CPU      0.15s WALL (    2971 calls)

     General routines
     calbec       :      0.23s CPU      0.24s WALL (    3763 calls)
     fft          :      0.03s CPU      0.03s WALL (     122 calls)
     ffts         :      0.00s CPU      0.00s WALL (      11 calls)
     fftw         :      7.62s CPU      7.82s WALL (   54600 calls)


     PWSCF        :     10.86s CPU     11.25s WALL


   This run was terminated on:  21:27:50   6Mar2026            

=------------------------------------------------------------------------------=
   JOB DONE.
=------------------------------------------------------------------------------=
Note: The following floating-point exceptions are signalling: IEEE_INVALID_FLAG IEEE_DIVIDE_BY_ZERO IEEE_UNDERFLOW_FLAG

     total cpu time spent up to now is       11.3 secs

     End of self-consistent calculation

          k = 0.0000 0.0000 0.0000 (  1205 PWs)   bands (ev):

   -36.3272 -11.6317 -11.6317 -11.6317  12.1103  18.3933  18.3933  18.3933
    21.3104  21.3104  32.2198

          k = 0.0000-0.0833 0.0833 (  1203 PWs)   bands (ev):

   -36.3109 -11.7305 -11.6617 -11.6325  12.3948  18.2186  18.3466  18.6680
    21.0560  21.3120  32.4479

          k = 0.0000-0.1667 0.1667 (  1194 PWs)   bands (ev):

   -36.2660 -11.9943 -11.7428 -11.6348  13.1553  17.7796  18.1300  19.4686
    20.7242  21.3453  32.8100

          k = 0.0000-0.2500 0.2500 (  1188 PWs)   bands (ev):

   -36.2041 -12.3420 -11.8517 -11.6380  14.0462  17.2507  17.9259  20.7191
    20.7939  21.4631  32.3768

          k = 0.0000-0.3333 0.3333 (  1200 PWs)   bands (ev):

   -36.1414 -12.6767 -11.9584 -11.6414  14.4565  16.7826  18.4501  21.1212
    21.6785  22.2605  31.1489

          k = 0.0000-0.4167 0.4167 (  1208 PWs)   bands (ev):

   -36.0950 -12.9144 -12.0352 -11.6439  14.3799  16.4698  19.6139  21.3656
    21.9181  23.7414  30.0602

          k = 0.0000 0.5000-0.5000 (  1204 PWs)   bands (ev):

   -36.0779 -13.0000 -12.0631 -11.6448  14.2996  16.3607  20.3265  21.3463
    22.0290  24.4281  30.1584

          k =-0.0833-0.0833 0.1667 (  1197 PWs)   bands (ev):

   -36.2803 -11.9117 -11.6950 -11.6564  12.9235  17.9905  18.0919  19.2552
    20.6980  21.3984  32.8606

          k =-0.0833-0.1667 0.2500 (  1187 PWs)   bands (ev):

   -36.2268 -12.2051 -11.7931 -11.6684  13.8026  17.5158  17.7705  20.3310
    20.5194  21.5716  33.0824

          k =-0.0833-0.2500 0.3333 (  1202 PWs)   bands (ev):

   -36.1645 -12.5281 -11.9167 -11.6742  14.5408  17.0154  17.7930  20.7146
    21.7505  21.8430  31.9993

          k =-0.0833-0.3333 0.4167 (  1195 PWs)   bands (ev):

   -36.1098 -12.7980 -12.0235 -11.6785  14.6511  16.6403  18.6236  21.1103
    21.9824  23.4240  30.7437

          k =-0.0833 0.5833-0.5000 (  1199 PWs)   bands (ev):

   -36.0780 -12.9504 -12.0846 -11.6809  14.5229  16.4416  19.5620  21.2614
    22.2588  24.6262  29.9650

          k =-0.1667-0.1667 0.3333 (  1198 PWs)   bands (ev):

   -36.1729 -12.4558 -11.8911 -11.7158  14.6574  17.1734  17.3804  20.4335
    21.7124  21.9305  32.7633

          k =-0.1667-0.2500 0.4167 (  1192 PWs)   bands (ev):

   -36.1184 -12.6793 -12.0344 -11.7379  15.1678  16.7912  17.6092  20.7004
    22.0517  23.4987  31.3788

          k =-0.1667 0.6667-0.5000 (  1198 PWs)   bands (ev):

   -36.0782 -12.8309 -12.1534 -11.7478  15.1124  16.6015  18.3398  21.0653
    22.2207  25.1443  30.0384

          k =-0.1667 0.5833-0.4167 (  1200 PWs)   bands (ev):

   -36.0634 -12.8843 -12.1987 -11.7508  15.0283  16.5412  18.7323  21.1575
    22.4127  25.9412  29.2834

          k =-0.2500 0.7500-0.5000 (  1203 PWs)   bands (ev):

   -36.0783 -12.7527 -12.2105 -11.7770  15.5909  16.6352  17.6849  20.9563
    22.1230  25.4167  30.1069

          k =-0.2500 0.6667-0.4167 (  1202 PWs)   bands (ev):

   -36.0550 -12.7547 -12.3594 -11.7925  15.6359  16.7017  17.8195  21.3007
    22.1542  27.1204  28.8189

          k =-0.3333 0.6667-0.3333 (  1208 PWs)   bands (ev):

   -36.0465 -12.5828 -12.5828 -11.8058  15.8494  17.1650  17.1650  21.7881
    21.7881  28.2231  29.1148

          k = 0.0000 0.0000 0.1667 (  1205 PWs)   bands (ev):

   -36.2949 -11.7658 -11.6921 -11.6921  12.6718  18.3457  18.3457  18.6504
    20.4913  21.5970  32.9998

          k = 0.0000-0.0833 0.2500 (  1193 PWs)   bands (ev):

   -36.2508 -12.0011 -11.7743 -11.7107  13.4131  18.0125  18.1992  19.3683
    19.9111  21.8254  33.4537

          k = 0.0000-0.1667 0.3333 (  1197 PWs)   bands (ev):

   -36.1901 -12.3352 -11.8845 -11.7116  14.2917  17.5112  17.8483  20.0008
    20.6189  22.0162  32.7004

          k = 0.0000-0.2500 0.4167 (  1191 PWs)   bands (ev):

   -36.1286 -12.6588 -11.9925 -11.7111  14.7075  17.0602  18.0259  20.5368
    22.1717  22.2317  31.3336

          k = 0.0000-0.3333 0.5000 (  1196 PWs)   bands (ev):

   -36.0832 -12.8891 -12.0702 -11.7106  14.6157  16.7572  18.7490  20.8586
    22.7504  23.6718  30.4050

          k = 0.0000 0.5833-0.4167 (  1204 PWs)   bands (ev):

   -36.0664 -12.9721 -12.0984 -11.7104  14.5263  16.6512  19.1767  20.7951
    23.2092  24.3721  29.9450

          k =-0.0833-0.0833 0.3333 (  1195 PWs)   bands (ev):

   -36.1995 -12.2299 -11.8677 -11.7663  14.2289  17.7715  17.9392  19.5151
    20.2313  22.1406  33.5056

          k =-0.0833-0.1667 0.4167 (  1206 PWs)   bands (ev):

   -36.1395 -12.5145 -11.9935 -11.7802  14.9562  17.2214  17.7627  19.8356
    21.5855  22.4432  32.0385

          k =-0.0833-0.2500 0.5000 (  1202 PWs)   bands (ev):

   -36.0871 -12.7593 -12.1052 -11.7818  15.0820  17.0229  17.8794  20.3846
    22.4127  23.6230  30.9077

          k =-0.0833 0.6667-0.4167 (  1193 PWs)   bands (ev):

   -36.0565 -12.8987 -12.1693 -11.7813  14.9292  16.9306  18.2494  20.4888
    23.1200  24.9837  29.8597

          k =-0.1667 0.1667 0.1667 (  1190 PWs)   bands (ev):

   -36.2402 -12.1628 -11.7031 -11.7031  13.6274  17.5760  17.5760  20.3538
    21.0844  21.0844  33.3383

          k =-0.1667-0.1667 0.5000 (  1194 PWs)   bands (ev):

   -36.0885 -12.6759 -12.1513 -11.8124  15.5271  16.6653  17.8655  20.0975
    22.0997  23.7757  31.1699

          k =-0.1667 0.7500-0.4167 (  1202 PWs)   bands (ev):

   -36.0508 -12.7783 -12.2940 -11.8213  15.6149  16.6765  17.7132  20.5906
    22.3636  25.6871  29.9091

          k =-0.1667 0.6667-0.3333 (  1208 PWs)   bands (ev):

   -36.0370 -12.8116 -12.3514 -11.8229  15.5256  16.9203  17.5097  20.7373
    22.6873  26.8529  28.9990

          k =-0.2500 0.2500 0.1667 (  1196 PWs)   bands (ev):

   -36.1851 -12.4392 -11.8262 -11.7141  14.5501  17.0650  17.2588  21.0295
    21.4386  21.8196  33.0417

          k =-0.2500 0.7500-0.3333 (  1204 PWs)   bands (ev):

   -36.0299 -12.7046 -12.4992 -11.8331  16.1623  16.5224  17.1486  21.3043
    22.1160  27.8690  28.7839

          k =-0.3333 0.3333 0.1667 (  1204 PWs)   bands (ev):

   -36.1293 -12.6842 -11.9728 -11.7253  15.0373  16.6644  17.6621  21.2335
    21.7368  23.4842  31.7044

          k =-0.3333 0.2500 0.2500 (  1200 PWs)   bands (ev):

   -36.1365 -12.6316 -11.9231 -11.7859  15.4166  16.7738  16.9171  21.2136
    21.7299  23.5627  32.3265

          k = 0.5833-0.5833 0.1667 (  1196 PWs)   bands (ev):

   -36.0882 -12.8514 -12.0874 -11.7335  14.9441  16.4138  18.7753  21.4579
    21.9680  24.9767  30.2947

          k = 0.5833-0.6667 0.2500 (  1195 PWs)   bands (ev):

   -36.0941 -12.7490 -12.0860 -11.8176  15.6287  16.5347  17.5517  21.4326
    21.9807  25.3174  30.5761

          k = 0.5000-0.5000 0.1667 (  1192 PWs)   bands (ev):

   -36.0730 -12.9107 -12.1303 -11.7365  14.8551  16.3289  19.4003  21.5219
    22.0620  25.6292  29.4505

          k = 0.5000-0.5833 0.2500 (  1196 PWs)   bands (ev):

   -36.0695 -12.7939 -12.2076 -11.8309  15.4913  16.4213  18.4159  21.6235
    22.1013  26.5871  29.0031

          k = 0.5000-0.6667 0.3333 (  1196 PWs)   bands (ev):

   -36.0682 -12.7111 -12.2692 -11.8741  15.8620  16.7322  17.6180  21.6537
    22.0851  27.0624  28.9454

          k = 0.4167-0.5833 0.3333 (  1199 PWs)   bands (ev):

   -36.0587 -12.6434 -12.3953 -11.8903  15.8639  16.8575  17.7361  21.8166
    22.0633  28.1318  28.1712

          k = 0.0000 0.0000 0.3333 (  1204 PWs)   bands (ev):

   -36.2092 -12.0739 -11.8592 -11.8592  14.0956  18.4245  18.4245  18.7369
    19.3973  22.2578  34.5784

          k = 0.0000-0.0833 0.4167 (  1205 PWs)   bands (ev):

   -36.1517 -12.3248 -11.9730 -11.9008  14.9088  17.6031  18.2274  19.0560
    20.4121  22.5192  32.7981

          k = 0.0000-0.1667 0.5000 (  1196 PWs)   bands (ev):

   -36.0936 -12.6109 -12.0845 -11.8973  15.3224  17.1382  17.8621  19.7609
    21.9508  22.8839  31.7084

          k = 0.0000-0.2500 0.5833 (  1197 PWs)   bands (ev):

   -36.0507 -12.8195 -12.1647 -11.8898  15.1640  17.3882  17.5967  19.9711
    23.4882  23.9319  30.6055

          k = 0.0000 0.6667-0.3333 (  1198 PWs)   bands (ev):

   -36.0349 -12.8951 -12.1938 -11.8867  15.0385  17.5020  17.6083  19.8769
    24.2224  24.8108  29.6631

          k =-0.0833-0.0833 0.5000 (  1193 PWs)   bands (ev):

   -36.0961 -12.5084 -12.1077 -11.9590  15.5330  16.8218  18.4149  19.3296
    21.3888  22.8931  32.1412

          k =-0.0833-0.1667 0.5833 (  1199 PWs)   bands (ev):

   -36.0474 -12.6959 -12.2341 -11.9629  15.6710  16.5184  18.1542  19.9288
    22.3790  24.1295  31.2665

          k =-0.0833 0.7500-0.3333 (  1199 PWs)   bands (ev):

   -36.0191 -12.8084 -12.3062 -11.9586  15.4170  16.8183  17.8045  20.0962
    23.3347  25.8435  29.6623

          k =-0.1667 0.8333-0.3333 (  1204 PWs)   bands (ev):

   -36.0133 -12.7237 -12.4143 -11.9720  15.9785  16.1003  17.7831  20.7766
    22.4699  26.2322  29.9114

          k =-0.1667 0.7500-0.2500 (  1202 PWs)   bands (ev):

   -36.0008 -12.7107 -12.5069 -11.9711  15.8317  16.3328  17.4391  21.2282
    22.6030  27.9715  28.7436

          k = 0.6667-0.6667 0.3333 (  1175 PWs)   bands (ev):

   -36.0999 -12.7150 -11.9550 -11.9550  16.4264  16.5487  16.5487  21.7509
    21.7509  25.4444  31.3459

          k = 0.5833-0.5833 0.3333 (  1192 PWs)   bands (ev):

   -36.0730 -12.7027 -12.1555 -11.9783  16.2460  16.4477  17.4947  21.8661
    22.0406  27.0494  29.1485

          k = 0.5000-0.5000 0.3333 (  1192 PWs)   bands (ev):

   -36.0632 -12.6654 -12.2624 -11.9869  16.1467  16.4211  17.9781  21.9263
    22.1291  27.8414  28.1589

          k = 0.5000-0.5833 0.4167 (  1191 PWs)   bands (ev):

   -36.0609 -12.5578 -12.3118 -12.0770  16.3557  16.8691  17.3940  22.0488
    22.1241  27.8354  28.7005

          k = 0.0000 0.0000 0.5000 (  1196 PWs)   bands (ev):

   -36.0989 -12.3699 -12.0917 -12.0917  15.5340  16.9362  18.9922  18.9922
    20.5492  22.7878  32.6837

          k = 0.0000-0.0833 0.5833 (  1195 PWs)   bands (ev):

   -36.0455 -12.5513 -12.2077 -12.1377  15.7882  16.2300  19.0685  19.5703
    21.7347  23.2881  32.5198

          k = 0.0000-0.1667 0.6667 (  1199 PWs)   bands (ev):

   -36.0060 -12.7232 -12.2911 -12.1274  15.4445  16.1886  18.9180  19.7999
    23.2545  24.7195  30.7974

          k = 0.0000 0.7500-0.2500 (  1194 PWs)   bands (ev):

   -35.9915 -12.7881 -12.3213 -12.1206  15.2639  16.2353  18.8511  19.7798
    24.0253  26.0734  29.1919

          k =-0.0833-0.0833 0.6667 (  1194 PWs)   bands (ev):

   -36.0013 -12.6390 -12.3513 -12.1773  15.6233  15.7876  19.1469  20.3834
    22.4505  24.5103  31.5686

          k =-0.0833 0.8333-0.2500 (  1197 PWs)   bands (ev):

   -35.9756 -12.7040 -12.4454 -12.1716  15.3117  15.7136  18.9558  20.9267
    23.2339  26.5232  29.4482

          k =-0.1667 0.8333-0.1667 (  1204 PWs)   bands (ev):

   -35.9644 -12.6079 -12.6079 -12.1702  15.3976  15.3976  18.8246  22.3828
    22.3828  28.6873  28.7949

          k = 0.5000-0.5000 0.5000 (  1220 PWs)   bands (ev):

   -36.0582 -12.3274 -12.3274 -12.3274  16.9331  16.9331  16.9331  22.1632
    22.1632  27.5177  29.9813

          k = 0.0000 0.0000 0.6667 (  1192 PWs)   bands (ev):

   -35.9969 -12.5334 -12.3281 -12.3281  15.5004  15.6575  20.2396  20.2396
    21.9187  23.7950  32.9153

          k = 0.0000-0.0833 0.7500 (  1205 PWs)   bands (ev):

   -35.9610 -12.6267 -12.4145 -12.3562  15.0503  15.3251  20.5769  20.8127
    23.0592  25.1642  30.5208

          k = 0.0000 0.8333-0.1667 (  1210 PWs)   bands (ev):

   -35.9478 -12.6790 -12.4458 -12.3473  14.9008  15.1795  20.5880  20.9443
    23.8359  26.7929  28.5571

          k =-0.0833 0.9167-0.1667 (  1211 PWs)   bands (ev):

   -35.9376 -12.6233 -12.5314 -12.3721  14.8004  14.9325  20.6829  22.1938
    23.2829  26.8360  28.9915

          k = 0.0000 0.0000 0.8333 (  1212 PWs)   bands (ev):

   -35.9278 -12.5712 -12.5031 -12.5031  14.5953  14.7562  22.1219  22.1219
    23.1379  25.8393  29.2732

          k = 0.0000 0.9167-0.0833 (  1216 PWs)   bands (ev):

   -35.9156 -12.5976 -12.5352 -12.5092  14.4611  14.5147  22.4869  22.6492
    23.7018  27.0650  27.7238

          k = 0.0000 0.0000-1.0000 (  1168 PWs)   bands (ev):

   -35.9038 -12.5675 -12.5675 -12.5675  14.2876  14.2876  23.6537  23.6537
    23.6537  27.1211  27.1211

     the Fermi energy is    18.0406 ev

!    total energy              =    -117.93326809 Ry
     estimated scf accuracy    <          1.6E-12 Ry
     smearing contrib. (-TS)   =       0.00046173 Ry
     internal energy E=F+TS    =    -117.93372982 Ry

     The total energy is F=E-TS. E is the sum of the following terms:
     one-electron contribution =     -15.73611492 Ry
     hartree contribution      =      14.89280212 Ry
     xc contribution           =     -18.44880468 Ry
     ewald contribution        =     -98.64161234 Ry

     convergence has been achieved in  10 iterations

     Writing all to output data dir ./tmp/Nb_k12.save/

     init_run     :      0.52s CPU      0.55s WALL (       1 calls)
     electrons    :     10.30s CPU     10.67s WALL (       1 calls)

     Called by init_run:
     wfcinit      :      0.38s CPU      0.39s WALL (       1 calls)
     potinit      :      0.01s CPU      0.01s WALL (       1 calls)
     hinit0       :      0.12s CPU      0.12s WALL (       1 calls)

     Called by electrons:
     c_bands      :      8.54s CPU      8.87s WALL (      11 calls)
     sum_band     :      1.63s CPU      1.67s WALL (      11 calls)
     v_of_rho     :      0.06s CPU      0.06s WALL (      11 calls)
     newd         :      0.07s CPU      0.09s WALL (      11 calls)
     mix_rho      :      0.01s CPU      0.01s WALL (      11 calls)

     Called by c_bands:
     init_us_2    :      0.21s CPU      0.22s WALL (    1656 calls)
     init_us_2:cp :      0.21s CPU      0.22s WALL (    1656 calls)
     cegterg      :      8.23s CPU      8.54s WALL (     792 calls)

     Called by *egterg:
     cdiaghg      :      0.19s CPU      0.19s WALL (    2827 calls)
     h_psi        :      7.42s CPU      7.67s WALL (    2971 calls)
     s_psi        :      0.14s CPU      0.15s WALL (    2971 calls)
     g_psi        :      0.02s CPU      0.02s WALL (    2107 calls)

     Called by h_psi:
     h_psi:calbec :      0.17s CPU      0.18s WALL (    2971 calls)
     vloc_psi     :      7.08s CPU      7.32s WALL (    2971 calls)
     add_vuspsi   :      0.15s CPU      0.15s WALL (    2971 calls)

     General routines
     calbec       :      0.23s CPU      0.24s WALL (    3763 calls)
     fft          :      0.03s CPU      0.03s WALL (     122 calls)
     ffts         :      0.00s CPU      0.00s WALL (      11 calls)
     fftw         :      7.64s CPU      7.87s WALL (   54600 calls)


     PWSCF        :     10.87s CPU     11.30s WALL


   This run was terminated on:  21:27:50   6Mar2026            

=------------------------------------------------------------------------------=
   JOB DONE.
=------------------------------------------------------------------------------=
Note: The following floating-point exceptions are signalling: IEEE_INVALID_FLAG IEEE_DIVIDE_BY_ZERO IEEE_UNDERFLOW_FLAG
