
     Program PWSCF v.7.2 starts on  6Mar2026 at 21:11:25 


     Program PWSCF v.7.2 starts on  6Mar2026 at 21:11:25 

     This program is part of the open-source Quantum ESPRESSO suite
     for quantum simulation of materials; please cite
         "P. Giannozzi et al., J. Phys.:Condens. Matter 21 395502 (2009);
         "P. Giannozzi et al., J. Phys.:Condens. Matter 29 465901 (2017);
         "P. Giannozzi et al., J. Chem. Phys. 152 154105 (2020);
          URL http://www.quantum-espresso.org", 
     in publications or presentations arising from this work. More details at
     http://www.quantum-espresso.org/quote

     Serial multi-threaded version, running on    1 processor cores
     0 MiB available memory on the printing compute node when the environment starts

     This program is part of the open-source Quantum ESPRESSO suite
     for quantum simulation of materials; please cite
         "P. Giannozzi et al., J. Phys.:Condens. Matter 21 395502 (2009);
         "P. Giannozzi et al., J. Phys.:Condens. Matter 29 465901 (2017);
         "P. Giannozzi et al., J. Chem. Phys. 152 154105 (2020);
          URL http://www.quantum-espresso.org", 
     in publications or presentations arising from this work. More details at
     http://www.quantum-espresso.org/quote

     Serial multi-threaded version, running on    1 processor cores
     0 MiB available memory on the printing compute node when the environment starts

     Reading input from tmp_scf.in
     Reading input from tmp_scf.in

     Program PWSCF v.7.2 starts on  6Mar2026 at 21:11:25 

     This program is part of the open-source Quantum ESPRESSO suite
     for quantum simulation of materials; please cite
         "P. Giannozzi et al., J. Phys.:Condens. Matter 21 395502 (2009);
         "P. Giannozzi et al., J. Phys.:Condens. Matter 29 465901 (2017);
         "P. Giannozzi et al., J. Chem. Phys. 152 154105 (2020);
          URL http://www.quantum-espresso.org", 
     in publications or presentations arising from this work. More details at
     http://www.quantum-espresso.org/quote

     Serial multi-threaded version, running on    1 processor cores
     0 MiB available memory on the printing compute node when the environment starts


     Current dimensions of program PWSCF are:
     Max number of different atomic species (ntypx) = 10
     Max number of k-points (npk) =  40000
     Max angular momentum in pseudopotentials (lmaxx) =  4

     Current dimensions of program PWSCF are:
     Max number of different atomic species (ntypx) = 10
     Max number of k-points (npk) =  40000
     Max angular momentum in pseudopotentials (lmaxx) =  4

     Program PWSCF v.7.2 starts on  6Mar2026 at 21:11:25 

     This program is part of the open-source Quantum ESPRESSO suite
     for quantum simulation of materials; please cite
         "P. Giannozzi et al., J. Phys.:Condens. Matter 21 395502 (2009);
         "P. Giannozzi et al., J. Phys.:Condens. Matter 29 465901 (2017);
         "P. Giannozzi et al., J. Chem. Phys. 152 154105 (2020);
          URL http://www.quantum-espresso.org", 
     in publications or presentations arising from this work. More details at
     http://www.quantum-espresso.org/quote

     Serial multi-threaded version, running on    1 processor cores
     0 MiB available memory on the printing compute node when the environment starts

     Reading input from tmp_scf.in
     Reading input from tmp_scf.in

     Current dimensions of program PWSCF are:
     Max number of different atomic species (ntypx) = 10
     Max number of k-points (npk) =  40000
     Max angular momentum in pseudopotentials (lmaxx) =  4

     Current dimensions of program PWSCF are:
     Max number of different atomic species (ntypx) = 10
     Max number of k-points (npk) =  40000
     Max angular momentum in pseudopotentials (lmaxx) =  4



     G-vector sticks info
     --------------------
     sticks:   dense  smooth     PW     G-vecs:    dense   smooth      PW
     Sum         619     619    197                 9597     9597    1721

     Using Slab Decomposition



     bravais-lattice index     =            3
     lattice parameter (alat)  =       6.2350  a.u.
     unit-cell volume          =     121.1935 (a.u.)^3
     number of atoms/cell      =            1
     number of atomic types    =            1
     number of electrons       =        13.00
     number of Kohn-Sham states=           11
     kinetic-energy cutoff     =      70.0000  Ry
     charge density cutoff     =     280.0000  Ry
     scf convergence threshold =      1.0E-10
     mixing beta               =       0.7000
     number of iterations used =            8  plain     mixing
     Exchange-correlation= SLA  PW   PBE  PBE
                           (   1   4   3   4   0   0   0)

     celldm(1)=   6.235000  celldm(2)=   0.000000  celldm(3)=   0.000000
     celldm(4)=   0.000000  celldm(5)=   0.000000  celldm(6)=   0.000000

     crystal axes: (cart. coord. in units of alat)
               a(1) = (   0.500000   0.500000   0.500000 )  
               a(2) = (  -0.500000   0.500000   0.500000 )  
               a(3) = (  -0.500000  -0.500000   0.500000 )  

     reciprocal axes: (cart. coord. in units 2 pi/alat)
               b(1) = (  1.000000  0.000000  1.000000 )  
               b(2) = ( -1.000000  1.000000  0.000000 )  
               b(3) = (  0.000000 -1.000000  1.000000 )  


     PseudoPot. # 1 for Nb read from file:
     ./pseudo/nb_pbe_v1.uspp.F.UPF
     MD5 check sum: 573aab8a2fa660278ed4a62cd769473f
     Pseudo is Ultrasoft + core correction, Zval = 13.0
     Generated by new atomic code, or converted to UPF format
     Using radial grid of  887 points,  6 beta functions with: 
                l(1) =   0
                l(2) =   0
                l(3) =   1
                l(4) =   1
                l(5) =   2
                l(6) =   2
     Q(r) pseudized with  6 coefficients,  rinner =    1.000   1.000   1.000
                                                       1.000   1.000

     atomic species   valence    mass     pseudopotential
        Nb            13.00    92.90600     Nb( 1.00)

     48 Sym. Ops., with inversion, found




   Cartesian axes

     site n.     atom                  positions (alat units)
         1           Nb  tau(   1) = (   0.0000000   0.0000000   0.0000000  )

     number of k points=    29  Marzari-Vanderbilt smearing, width (Ry)=  0.0200
                       cart. coord. in units 2pi/alat
        k(    1) = (   0.0000000   0.0000000   0.0000000), wk =   0.0039062
        k(    2) = (   0.0000000  -0.1250000   0.1250000), wk =   0.0468750
        k(    3) = (   0.0000000  -0.2500000   0.2500000), wk =   0.0468750
        k(    4) = (   0.0000000  -0.3750000   0.3750000), wk =   0.0468750
        k(    5) = (   0.0000000   0.5000000  -0.5000000), wk =   0.0234375
        k(    6) = (  -0.1250000  -0.1250000   0.2500000), wk =   0.0937500
        k(    7) = (  -0.1250000  -0.2500000   0.3750000), wk =   0.1875000
        k(    8) = (  -0.1250000   0.6250000  -0.5000000), wk =   0.1875000
        k(    9) = (  -0.2500000   0.7500000  -0.5000000), wk =   0.0937500
        k(   10) = (  -0.2500000   0.6250000  -0.3750000), wk =   0.0937500
        k(   11) = (   0.0000000   0.0000000   0.2500000), wk =   0.0234375
        k(   12) = (   0.0000000  -0.1250000   0.3750000), wk =   0.0937500
        k(   13) = (   0.0000000  -0.2500000   0.5000000), wk =   0.0937500
        k(   14) = (   0.0000000   0.6250000  -0.3750000), wk =   0.0468750
        k(   15) = (  -0.1250000  -0.1250000   0.5000000), wk =   0.0937500

     G-vector sticks info
        k(   16) = (  -0.1250000   0.7500000  -0.3750000), wk =   0.1875000
        k(   17) = (  -0.2500000   0.2500000   0.2500000), wk =   0.0312500
        k(   18) = (  -0.2500000   0.7500000  -0.2500000), wk =   0.0312500
     --------------------
     sticks:   dense  smooth     PW     G-vecs:    dense   smooth      PW
        k(   19) = (   0.6250000  -0.6250000   0.2500000), wk =   0.0937500
        k(   20) = (   0.5000000  -0.5000000   0.2500000), wk =   0.0468750
        k(   21) = (   0.5000000  -0.6250000   0.3750000), wk =   0.0937500
        k(   22) = (   0.0000000   0.0000000   0.5000000), wk =   0.0234375
     Sum         619     619    197                 9597     9597    1721

        k(   23) = (   0.0000000  -0.1250000   0.6250000), wk =   0.0937500
        k(   24) = (   0.0000000   0.7500000  -0.2500000), wk =   0.0468750
        k(   25) = (  -0.1250000   0.8750000  -0.2500000), wk =   0.0937500
     Using Slab Decomposition

        k(   26) = (   0.5000000  -0.5000000   0.5000000), wk =   0.0078125
        k(   27) = (   0.0000000   0.0000000   0.7500000), wk =   0.0234375
        k(   28) = (   0.0000000   0.8750000  -0.1250000), wk =   0.0468750
        k(   29) = (   0.0000000   0.0000000  -1.0000000), wk =   0.0039062


     bravais-lattice index     =            3

     Dense  grid:     9597 G-vectors     FFT dimensions: (  30,  30,  30)
     lattice parameter (alat)  =       6.2350  a.u.
     unit-cell volume          =     121.1935 (a.u.)^3
     number of atoms/cell      =            1
     number of atomic types    =            1
     number of electrons       =        13.00

     Estimated max dynamical RAM per process >      40.94 MB
     number of Kohn-Sham states=           11
     kinetic-energy cutoff     =      70.0000  Ry
     charge density cutoff     =     280.0000  Ry
     scf convergence threshold =      1.0E-10
     mixing beta               =       0.7000
     number of iterations used =            8  plain     mixing
     Exchange-correlation= SLA  PW   PBE  PBE
                           (   1   4   3   4   0   0   0)

     celldm(1)=   6.235000  celldm(2)=   0.000000  celldm(3)=   0.000000
     celldm(4)=   0.000000  celldm(5)=   0.000000  celldm(6)=   0.000000

     crystal axes: (cart. coord. in units of alat)
               a(1) = (   0.500000   0.500000   0.500000 )  
               a(2) = (  -0.500000   0.500000   0.500000 )  
               a(3) = (  -0.500000  -0.500000   0.500000 )  

     reciprocal axes: (cart. coord. in units 2 pi/alat)
               b(1) = (  1.000000  0.000000  1.000000 )  
               b(2) = ( -1.000000  1.000000  0.000000 )  
               b(3) = (  0.000000 -1.000000  1.000000 )  


     PseudoPot. # 1 for Nb read from file:
     ./pseudo/nb_pbe_v1.uspp.F.UPF
     MD5 check sum: 573aab8a2fa660278ed4a62cd769473f
     Pseudo is Ultrasoft + core correction, Zval = 13.0
     Generated by new atomic code, or converted to UPF format
     Using radial grid of  887 points,  6 beta functions with: 
                l(1) =   0
                l(2) =   0
                l(3) =   1
                l(4) =   1
                l(5) =   2
                l(6) =   2
     Q(r) pseudized with  6 coefficients,  rinner =    1.000   1.000   1.000
                                                       1.000   1.000

     atomic species   valence    mass     pseudopotential
        Nb            13.00    92.90600     Nb( 1.00)

     48 Sym. Ops., with inversion, found



   Cartesian axes

     site n.     atom                  positions (alat units)
         1           Nb  tau(   1) = (   0.0000000   0.0000000   0.0000000  )

     number of k points=    29  Marzari-Vanderbilt smearing, width (Ry)=  0.0200
                       cart. coord. in units 2pi/alat
        k(    1) = (   0.0000000   0.0000000   0.0000000), wk =   0.0039062
        k(    2) = (   0.0000000  -0.1250000   0.1250000), wk =   0.0468750
        k(    3) = (   0.0000000  -0.2500000   0.2500000), wk =   0.0468750
        k(    4) = (   0.0000000  -0.3750000   0.3750000), wk =   0.0468750
        k(    5) = (   0.0000000   0.5000000  -0.5000000), wk =   0.0234375
        k(    6) = (  -0.1250000  -0.1250000   0.2500000), wk =   0.0937500
        k(    7) = (  -0.1250000  -0.2500000   0.3750000), wk =   0.1875000
        k(    8) = (  -0.1250000   0.6250000  -0.5000000), wk =   0.1875000
        k(    9) = (  -0.2500000   0.7500000  -0.5000000), wk =   0.0937500
        k(   10) = (  -0.2500000   0.6250000  -0.3750000), wk =   0.0937500
        k(   11) = (   0.0000000   0.0000000   0.2500000), wk =   0.0234375
        k(   12) = (   0.0000000  -0.1250000   0.3750000), wk =   0.0937500
        k(   13) = (   0.0000000  -0.2500000   0.5000000), wk =   0.0937500
        k(   14) = (   0.0000000   0.6250000  -0.3750000), wk =   0.0468750
        k(   15) = (  -0.1250000  -0.1250000   0.5000000), wk =   0.0937500
        k(   16) = (  -0.1250000   0.7500000  -0.3750000), wk =   0.1875000
        k(   17) = (  -0.2500000   0.2500000   0.2500000), wk =   0.0312500
        k(   18) = (  -0.2500000   0.7500000  -0.2500000), wk =   0.0312500
        k(   19) = (   0.6250000  -0.6250000   0.2500000), wk =   0.0937500
        k(   20) = (   0.5000000  -0.5000000   0.2500000), wk =   0.0468750
        k(   21) = (   0.5000000  -0.6250000   0.3750000), wk =   0.0937500
        k(   22) = (   0.0000000   0.0000000   0.5000000), wk =   0.0234375
        k(   23) = (   0.0000000  -0.1250000   0.6250000), wk =   0.0937500
        k(   24) = (   0.0000000   0.7500000  -0.2500000), wk =   0.0468750
        k(   25) = (  -0.1250000   0.8750000  -0.2500000), wk =   0.0937500
        k(   26) = (   0.5000000  -0.5000000   0.5000000), wk =   0.0078125
        k(   27) = (   0.0000000   0.0000000   0.7500000), wk =   0.0234375
        k(   28) = (   0.0000000   0.8750000  -0.1250000), wk =   0.0468750
        k(   29) = (   0.0000000   0.0000000  -1.0000000), wk =   0.0039062

     Dense  grid:     9597 G-vectors     FFT dimensions: (  30,  30,  30)

     Estimated max dynamical RAM per process >      40.94 MB

     G-vector sticks info
     --------------------
     sticks:   dense  smooth     PW     G-vecs:    dense   smooth      PW
     Sum         619     619    197                 9597     9597    1721

     Using Slab Decomposition



     bravais-lattice index     =            3
     lattice parameter (alat)  =       6.2350  a.u.
     unit-cell volume          =     121.1935 (a.u.)^3
     number of atoms/cell      =            1
     number of atomic types    =            1
     number of electrons       =        13.00
     number of Kohn-Sham states=           11
     kinetic-energy cutoff     =      70.0000  Ry
     charge density cutoff     =     280.0000  Ry
     scf convergence threshold =      1.0E-10
     mixing beta               =       0.7000
     number of iterations used =            8  plain     mixing
     Exchange-correlation= SLA  PW   PBE  PBE
                           (   1   4   3   4   0   0   0)

     celldm(1)=   6.235000  celldm(2)=   0.000000  celldm(3)=   0.000000

     celldm(4)=   0.000000  celldm(5)=   0.000000  celldm(6)=   0.000000

     crystal axes: (cart. coord. in units of alat)
               a(1) = (   0.500000   0.500000   0.500000 )  
               a(2) = (  -0.500000   0.500000   0.500000 )  
               a(3) = (  -0.500000  -0.500000   0.500000 )  

     reciprocal axes: (cart. coord. in units 2 pi/alat)
               b(1) = (  1.000000  0.000000  1.000000 )  
               b(2) = ( -1.000000  1.000000  0.000000 )  
               b(3) = (  0.000000 -1.000000  1.000000 )  


     PseudoPot. # 1 for Nb read from file:
     ./pseudo/nb_pbe_v1.uspp.F.UPF
     MD5 check sum: 573aab8a2fa660278ed4a62cd769473f
     Pseudo is Ultrasoft + core correction, Zval = 13.0
     Generated by new atomic code, or converted to UPF format
     Using radial grid of  887 points,  6 beta functions with: 
                l(1) =   0
                l(2) =   0
                l(3) =   1
                l(4) =   1
                l(5) =   2
                l(6) =   2
     Q(r) pseudized with  6 coefficients,  rinner =    1.000   1.000   1.000
                                                       1.000   1.000

     atomic species   valence    mass     pseudopotential
        Nb            13.00    92.90600     Nb( 1.00)

     48 Sym. Ops., with inversion, found



   Cartesian axes

     site n.     atom                  positions (alat units)
         1           Nb  tau(   1) = (   0.0000000   0.0000000   0.0000000  )

     number of k points=    29  Marzari-Vanderbilt smearing, width (Ry)=  0.0200
                       cart. coord. in units 2pi/alat
        k(    1) = (   0.0000000   0.0000000   0.0000000), wk =   0.0039062
        k(    2) = (   0.0000000  -0.1250000   0.1250000), wk =   0.0468750
        k(    3) = (   0.0000000  -0.2500000   0.2500000), wk =   0.0468750
        k(    4) = (   0.0000000  -0.3750000   0.3750000), wk =   0.0468750
        k(    5) = (   0.0000000   0.5000000  -0.5000000), wk =   0.0234375
        k(    6) = (  -0.1250000  -0.1250000   0.2500000), wk =   0.0937500
        k(    7) = (  -0.1250000  -0.2500000   0.3750000), wk =   0.1875000
        k(    8) = (  -0.1250000   0.6250000  -0.5000000), wk =   0.1875000
        k(    9) = (  -0.2500000   0.7500000  -0.5000000), wk =   0.0937500
        k(   10) = (  -0.2500000   0.6250000  -0.3750000), wk =   0.0937500
        k(   11) = (   0.0000000   0.0000000   0.2500000), wk =   0.0234375
        k(   12) = (   0.0000000  -0.1250000   0.3750000), wk =   0.0937500
        k(   13) = (   0.0000000  -0.2500000   0.5000000), wk =   0.0937500
        k(   14) = (   0.0000000   0.6250000  -0.3750000), wk =   0.0468750
        k(   15) = (  -0.1250000  -0.1250000   0.5000000), wk =   0.0937500
        k(   16) = (  -0.1250000   0.7500000  -0.3750000), wk =   0.1875000
        k(   17) = (  -0.2500000   0.2500000   0.2500000), wk =   0.0312500
        k(   18) = (  -0.2500000   0.7500000  -0.2500000), wk =   0.0312500
        k(   19) = (   0.6250000  -0.6250000   0.2500000), wk =   0.0937500
        k(   20) = (   0.5000000  -0.5000000   0.2500000), wk =   0.0468750
        k(   21) = (   0.5000000  -0.6250000   0.3750000), wk =   0.0937500
        k(   22) = (   0.0000000   0.0000000   0.5000000), wk =   0.0234375
        k(   23) = (   0.0000000  -0.1250000   0.6250000), wk =   0.0937500
        k(   24) = (   0.0000000   0.7500000  -0.2500000), wk =   0.0468750
        k(   25) = (  -0.1250000   0.8750000  -0.2500000), wk =   0.0937500
        k(   26) = (   0.5000000  -0.5000000   0.5000000), wk =   0.0078125
        k(   27) = (   0.0000000   0.0000000   0.7500000), wk =   0.0234375
        k(   28) = (   0.0000000   0.8750000  -0.1250000), wk =   0.0468750
        k(   29) = (   0.0000000   0.0000000  -1.0000000), wk =   0.0039062

     Dense  grid:     9597 G-vectors     FFT dimensions: (  30,  30,  30)

     Estimated max dynamical RAM per process >      40.94 MB

     G-vector sticks info
     --------------------
     sticks:   dense  smooth     PW     G-vecs:    dense   smooth      PW
     Sum         619     619    197                 9597     9597    1721

     Using Slab Decomposition



     bravais-lattice index     =            3
     lattice parameter (alat)  =       6.2350  a.u.
     unit-cell volume          =     121.1935 (a.u.)^3
     number of atoms/cell      =            1
     number of atomic types    =            1
     number of electrons       =        13.00
     number of Kohn-Sham states=           11
     kinetic-energy cutoff     =      70.0000  Ry
     charge density cutoff     =     280.0000  Ry
     scf convergence threshold =      1.0E-10
     mixing beta               =       0.7000
     number of iterations used =            8  plain     mixing
     Exchange-correlation= SLA  PW   PBE  PBE
                           (   1   4   3   4   0   0   0)

     celldm(1)=   6.235000  celldm(2)=   0.000000  celldm(3)=   0.000000
     celldm(4)=   0.000000  celldm(5)=   0.000000  celldm(6)=   0.000000

     crystal axes: (cart. coord. in units of alat)
               a(1) = (   0.500000   0.500000   0.500000 )  
               a(2) = (  -0.500000   0.500000   0.500000 )  
               a(3) = (  -0.500000  -0.500000   0.500000 )  

     reciprocal axes: (cart. coord. in units 2 pi/alat)
               b(1) = (  1.000000  0.000000  1.000000 )  
               b(2) = ( -1.000000  1.000000  0.000000 )  
               b(3) = (  0.000000 -1.000000  1.000000 )  


     PseudoPot. # 1 for Nb read from file:
     ./pseudo/nb_pbe_v1.uspp.F.UPF
     MD5 check sum: 573aab8a2fa660278ed4a62cd769473f
     Pseudo is Ultrasoft + core correction, Zval = 13.0
     Generated by new atomic code, or converted to UPF format
     Using radial grid of  887 points,  6 beta functions with: 
                l(1) =   0
                l(2) =   0
                l(3) =   1
                l(4) =   1
                l(5) =   2
                l(6) =   2
     Q(r) pseudized with  6 coefficients,  rinner =    1.000   1.000   1.000
                                                       1.000   1.000

     atomic species   valence    mass     pseudopotential
        Nb            13.00    92.90600     Nb( 1.00)

     48 Sym. Ops., with inversion, found



   Cartesian axes

     site n.     atom                  positions (alat units)
         1           Nb  tau(   1) = (   0.0000000   0.0000000   0.0000000  )

     number of k points=    29  Marzari-Vanderbilt smearing, width (Ry)=  0.0200
                       cart. coord. in units 2pi/alat
        k(    1) = (   0.0000000   0.0000000   0.0000000), wk =   0.0039062
        k(    2) = (   0.0000000  -0.1250000   0.1250000), wk =   0.0468750
        k(    3) = (   0.0000000  -0.2500000   0.2500000), wk =   0.0468750
        k(    4) = (   0.0000000  -0.3750000   0.3750000), wk =   0.0468750
        k(    5) = (   0.0000000   0.5000000  -0.5000000), wk =   0.0234375
        k(    6) = (  -0.1250000  -0.1250000   0.2500000), wk =   0.0937500
        k(    7) = (  -0.1250000  -0.2500000   0.3750000), wk =   0.1875000
        k(    8) = (  -0.1250000   0.6250000  -0.5000000), wk =   0.1875000
        k(    9) = (  -0.2500000   0.7500000  -0.5000000), wk =   0.0937500
        k(   10) = (  -0.2500000   0.6250000  -0.3750000), wk =   0.0937500
        k(   11) = (   0.0000000   0.0000000   0.2500000), wk =   0.0234375
        k(   12) = (   0.0000000  -0.1250000   0.3750000), wk =   0.0937500
        k(   13) = (   0.0000000  -0.2500000   0.5000000), wk =   0.0937500
        k(   14) = (   0.0000000   0.6250000  -0.3750000), wk =   0.0468750
        k(   15) = (  -0.1250000  -0.1250000   0.5000000), wk =   0.0937500
        k(   16) = (  -0.1250000   0.7500000  -0.3750000), wk =   0.1875000
        k(   17) = (  -0.2500000   0.2500000   0.2500000), wk =   0.0312500
        k(   18) = (  -0.2500000   0.7500000  -0.2500000), wk =   0.0312500
        k(   19) = (   0.6250000  -0.6250000   0.2500000), wk =   0.0937500
        k(   20) = (   0.5000000  -0.5000000   0.2500000), wk =   0.0468750
        k(   21) = (   0.5000000  -0.6250000   0.3750000), wk =   0.0937500
        k(   22) = (   0.0000000   0.0000000   0.5000000), wk =   0.0234375
        k(   23) = (   0.0000000  -0.1250000   0.6250000), wk =   0.0937500
        k(   24) = (   0.0000000   0.7500000  -0.2500000), wk =   0.0468750
        k(   25) = (  -0.1250000   0.8750000  -0.2500000), wk =   0.0937500
        k(   26) = (   0.5000000  -0.5000000   0.5000000), wk =   0.0078125
        k(   27) = (   0.0000000   0.0000000   0.7500000), wk =   0.0234375
        k(   28) = (   0.0000000   0.8750000  -0.1250000), wk =   0.0468750
        k(   29) = (   0.0000000   0.0000000  -1.0000000), wk =   0.0039062

     Dense  grid:     9597 G-vectors     FFT dimensions: (  30,  30,  30)

     Estimated max dynamical RAM per process >      40.94 MB

     Check: negative core charge=   -0.000001

     Initial potential from superposition of free atoms

     starting charge      12.9973, renormalised to      13.0000

     Check: negative core charge=   -0.000001

     Initial potential from superposition of free atoms

     Check: negative core charge=   -0.000001

     Initial potential from superposition of free atoms

     starting charge      12.9973, renormalised to      13.0000

     starting charge      12.9973, renormalised to      13.0000

     Check: negative core charge=   -0.000001

     Initial potential from superposition of free atoms

     starting charge      12.9973, renormalised to      13.0000
     Starting wfcs are   13 randomized atomic wfcs
     Starting wfcs are   13 randomized atomic wfcs
     Starting wfcs are   13 randomized atomic wfcs
     Starting wfcs are   13 randomized atomic wfcs

     total cpu time spent up to now is        0.4 secs

     Self-consistent Calculation

     iteration #  1     ecut=    70.00 Ry     beta= 0.70
     Davidson diagonalization with overlap

     total cpu time spent up to now is        0.4 secs

     Self-consistent Calculation

     iteration #  1     ecut=    70.00 Ry     beta= 0.70
     Davidson diagonalization with overlap

     total cpu time spent up to now is        0.4 secs

     Self-consistent Calculation

     iteration #  1     ecut=    70.00 Ry     beta= 0.70
     Davidson diagonalization with overlap

     total cpu time spent up to now is        0.4 secs

     Self-consistent Calculation

     iteration #  1     ecut=    70.00 Ry     beta= 0.70
     Davidson diagonalization with overlap
     ethr =  1.00E-02,  avg # of iterations =  3.4
     ethr =  1.00E-02,  avg # of iterations =  3.4
     ethr =  1.00E-02,  avg # of iterations =  3.4
     ethr =  1.00E-02,  avg # of iterations =  3.4

     Threshold (ethr) on eigenvalues was too large:
     Diagonalizing with lowered threshold

     Davidson diagonalization with overlap

     Threshold (ethr) on eigenvalues was too large:
     Diagonalizing with lowered threshold

     Davidson diagonalization with overlap

     Threshold (ethr) on eigenvalues was too large:
     Diagonalizing with lowered threshold

     Davidson diagonalization with overlap

     Threshold (ethr) on eigenvalues was too large:
     Diagonalizing with lowered threshold

     Davidson diagonalization with overlap
     ethr =  6.83E-04,  avg # of iterations =  1.0
     ethr =  6.83E-04,  avg # of iterations =  1.0
     ethr =  6.83E-04,  avg # of iterations =  1.0
     ethr =  6.83E-04,  avg # of iterations =  1.0

     total cpu time spent up to now is        1.1 secs

     total energy              =    -117.91287927 Ry
     estimated scf accuracy    <       0.09074919 Ry

     iteration #  2     ecut=    70.00 Ry     beta= 0.70
     Davidson diagonalization with overlap

     total cpu time spent up to now is        1.1 secs

     total energy              =    -117.91287927 Ry
     estimated scf accuracy    <       0.09074919 Ry

     iteration #  2     ecut=    70.00 Ry     beta= 0.70
     Davidson diagonalization with overlap

     total cpu time spent up to now is        1.1 secs

     total energy              =    -117.91287927 Ry
     estimated scf accuracy    <       0.09074919 Ry

     iteration #  2     ecut=    70.00 Ry     beta= 0.70
     Davidson diagonalization with overlap

     total cpu time spent up to now is        1.1 secs

     total energy              =    -117.91287927 Ry
     estimated scf accuracy    <       0.09074919 Ry

     iteration #  2     ecut=    70.00 Ry     beta= 0.70
     Davidson diagonalization with overlap
     ethr =  6.98E-04,  avg # of iterations =  2.0
     ethr =  6.98E-04,  avg # of iterations =  2.0
     ethr =  6.98E-04,  avg # of iterations =  2.0
     ethr =  6.98E-04,  avg # of iterations =  2.0

     total cpu time spent up to now is        1.5 secs

     total energy              =    -117.93339437 Ry
     estimated scf accuracy    <       0.00522522 Ry

     iteration #  3     ecut=    70.00 Ry     beta= 0.70
     Davidson diagonalization with overlap

     total cpu time spent up to now is        1.5 secs

     total energy              =    -117.93339437 Ry
     estimated scf accuracy    <       0.00522522 Ry

     iteration #  3     ecut=    70.00 Ry     beta= 0.70
     Davidson diagonalization with overlap

     total cpu time spent up to now is        1.5 secs

     total energy              =    -117.93339437 Ry
     estimated scf accuracy    <       0.00522522 Ry

     iteration #  3     ecut=    70.00 Ry     beta= 0.70
     Davidson diagonalization with overlap

     total cpu time spent up to now is        1.5 secs

     total energy              =    -117.93339437 Ry
     estimated scf accuracy    <       0.00522522 Ry

     iteration #  3     ecut=    70.00 Ry     beta= 0.70
     Davidson diagonalization with overlap
     ethr =  4.02E-05,  avg # of iterations =  2.8
     ethr =  4.02E-05,  avg # of iterations =  2.8
     ethr =  4.02E-05,  avg # of iterations =  2.8
     ethr =  4.02E-05,  avg # of iterations =  2.8

     total cpu time spent up to now is        1.9 secs

     total energy              =    -117.93420081 Ry
     estimated scf accuracy    <       0.00014183 Ry

     iteration #  4     ecut=    70.00 Ry     beta= 0.70
     Davidson diagonalization with overlap

     total cpu time spent up to now is        1.9 secs

     total energy              =    -117.93420081 Ry
     estimated scf accuracy    <       0.00014183 Ry

     iteration #  4     ecut=    70.00 Ry     beta= 0.70
     Davidson diagonalization with overlap

     total cpu time spent up to now is        1.9 secs

     total energy              =    -117.93420081 Ry
     estimated scf accuracy    <       0.00014183 Ry

     iteration #  4     ecut=    70.00 Ry     beta= 0.70
     Davidson diagonalization with overlap

     total cpu time spent up to now is        1.9 secs

     total energy              =    -117.93420081 Ry
     estimated scf accuracy    <       0.00014183 Ry

     iteration #  4     ecut=    70.00 Ry     beta= 0.70
     Davidson diagonalization with overlap
     ethr =  1.09E-06,  avg # of iterations =  3.2
     ethr =  1.09E-06,  avg # of iterations =  3.2
     ethr =  1.09E-06,  avg # of iterations =  3.2
     ethr =  1.09E-06,  avg # of iterations =  3.2

     total cpu time spent up to now is        2.2 secs

     total energy              =    -117.93421270 Ry
     estimated scf accuracy    <       0.00000642 Ry

     iteration #  5     ecut=    70.00 Ry     beta= 0.70
     Davidson diagonalization with overlap

     total cpu time spent up to now is        2.3 secs

     total energy              =    -117.93421270 Ry
     estimated scf accuracy    <       0.00000642 Ry

     iteration #  5     ecut=    70.00 Ry     beta= 0.70
     Davidson diagonalization with overlap

     total cpu time spent up to now is        2.3 secs

     total energy              =    -117.93421270 Ry
     estimated scf accuracy    <       0.00000642 Ry

     iteration #  5     ecut=    70.00 Ry     beta= 0.70
     Davidson diagonalization with overlap

     total cpu time spent up to now is        2.3 secs

     total energy              =    -117.93421270 Ry
     estimated scf accuracy    <       0.00000642 Ry

     iteration #  5     ecut=    70.00 Ry     beta= 0.70
     Davidson diagonalization with overlap
     ethr =  4.94E-08,  avg # of iterations =  2.1
     ethr =  4.94E-08,  avg # of iterations =  2.1
     ethr =  4.94E-08,  avg # of iterations =  2.1
     ethr =  4.94E-08,  avg # of iterations =  2.1

     total cpu time spent up to now is        2.6 secs

     total energy              =    -117.93421481 Ry
     estimated scf accuracy    <       0.00000243 Ry

     iteration #  6     ecut=    70.00 Ry     beta= 0.70
     Davidson diagonalization with overlap

     total cpu time spent up to now is        2.7 secs

     total energy              =    -117.93421481 Ry
     estimated scf accuracy    <       0.00000243 Ry

     iteration #  6     ecut=    70.00 Ry     beta= 0.70
     Davidson diagonalization with overlap

     total cpu time spent up to now is        2.7 secs

     total energy              =    -117.93421481 Ry
     estimated scf accuracy    <       0.00000243 Ry

     iteration #  6     ecut=    70.00 Ry     beta= 0.70
     Davidson diagonalization with overlap

     total cpu time spent up to now is        2.7 secs

     total energy              =    -117.93421481 Ry
     estimated scf accuracy    <       0.00000243 Ry

     iteration #  6     ecut=    70.00 Ry     beta= 0.70
     Davidson diagonalization with overlap
     ethr =  1.87E-08,  avg # of iterations =  2.0
     ethr =  1.87E-08,  avg # of iterations =  2.0
     ethr =  1.87E-08,  avg # of iterations =  2.0
     ethr =  1.87E-08,  avg # of iterations =  2.0

     total cpu time spent up to now is        3.0 secs

     total energy              =    -117.93421524 Ry
     estimated scf accuracy    <          5.9E-09 Ry

     iteration #  7     ecut=    70.00 Ry     beta= 0.70
     Davidson diagonalization with overlap

     total cpu time spent up to now is        3.0 secs

     total energy              =    -117.93421524 Ry
     estimated scf accuracy    <          5.9E-09 Ry

     iteration #  7     ecut=    70.00 Ry     beta= 0.70
     Davidson diagonalization with overlap

     total cpu time spent up to now is        3.1 secs

     total energy              =    -117.93421524 Ry
     estimated scf accuracy    <          5.9E-09 Ry

     iteration #  7     ecut=    70.00 Ry     beta= 0.70
     Davidson diagonalization with overlap

     total cpu time spent up to now is        3.1 secs

     total energy              =    -117.93421524 Ry
     estimated scf accuracy    <          5.9E-09 Ry

     iteration #  7     ecut=    70.00 Ry     beta= 0.70
     Davidson diagonalization with overlap
     ethr =  4.53E-11,  avg # of iterations =  3.4
     ethr =  4.53E-11,  avg # of iterations =  3.4
     ethr =  4.53E-11,  avg # of iterations =  3.4

     total cpu time spent up to now is        3.4 secs

     total energy              =    -117.93421524 Ry
     estimated scf accuracy    <          3.0E-09 Ry

     iteration #  8     ecut=    70.00 Ry     beta= 0.70
     Davidson diagonalization with overlap
     ethr =  4.53E-11,  avg # of iterations =  3.4

     total cpu time spent up to now is        3.5 secs

     total energy              =    -117.93421524 Ry
     estimated scf accuracy    <          3.0E-09 Ry

     iteration #  8     ecut=    70.00 Ry     beta= 0.70
     Davidson diagonalization with overlap

     total cpu time spent up to now is        3.5 secs

     total energy              =    -117.93421524 Ry
     estimated scf accuracy    <          3.0E-09 Ry

     iteration #  8     ecut=    70.00 Ry     beta= 0.70
     Davidson diagonalization with overlap

     total cpu time spent up to now is        3.5 secs

     total energy              =    -117.93421524 Ry
     estimated scf accuracy    <          3.0E-09 Ry

     iteration #  8     ecut=    70.00 Ry     beta= 0.70
     Davidson diagonalization with overlap
     ethr =  2.34E-11,  avg # of iterations =  1.3
     ethr =  2.34E-11,  avg # of iterations =  1.3
     ethr =  2.34E-11,  avg # of iterations =  1.3

     total cpu time spent up to now is        3.7 secs

     total energy              =    -117.93421524 Ry
     estimated scf accuracy    <          6.0E-10 Ry

     iteration #  9     ecut=    70.00 Ry     beta= 0.70
     Davidson diagonalization with overlap
     ethr =  2.34E-11,  avg # of iterations =  1.3

     total cpu time spent up to now is        3.8 secs

     total energy              =    -117.93421524 Ry
     estimated scf accuracy    <          6.0E-10 Ry

     iteration #  9     ecut=    70.00 Ry     beta= 0.70
     Davidson diagonalization with overlap

     total cpu time spent up to now is        3.8 secs

     total energy              =    -117.93421524 Ry
     estimated scf accuracy    <          6.0E-10 Ry

     iteration #  9     ecut=    70.00 Ry     beta= 0.70
     Davidson diagonalization with overlap

     total cpu time spent up to now is        3.8 secs

     total energy              =    -117.93421524 Ry
     estimated scf accuracy    <          6.0E-10 Ry

     iteration #  9     ecut=    70.00 Ry     beta= 0.70
     Davidson diagonalization with overlap
     ethr =  4.58E-12,  avg # of iterations =  2.9
     ethr =  4.58E-12,  avg # of iterations =  2.9
     ethr =  4.58E-12,  avg # of iterations =  2.9
     ethr =  4.58E-12,  avg # of iterations =  2.9

     total cpu time spent up to now is        4.2 secs

     total energy              =    -117.93421524 Ry
     estimated scf accuracy    <          1.1E-09 Ry

     iteration # 10     ecut=    70.00 Ry     beta= 0.70
     Davidson diagonalization with overlap

     total cpu time spent up to now is        4.2 secs

     total energy              =    -117.93421524 Ry
     estimated scf accuracy    <          1.1E-09 Ry

     iteration # 10     ecut=    70.00 Ry     beta= 0.70
     Davidson diagonalization with overlap

     total cpu time spent up to now is        4.2 secs

     total energy              =    -117.93421524 Ry
     estimated scf accuracy    <          1.1E-09 Ry

     iteration # 10     ecut=    70.00 Ry     beta= 0.70
     Davidson diagonalization with overlap

     total cpu time spent up to now is        4.2 secs

     total energy              =    -117.93421524 Ry
     estimated scf accuracy    <          1.1E-09 Ry

     iteration # 10     ecut=    70.00 Ry     beta= 0.70
     Davidson diagonalization with overlap
     ethr =  4.58E-12,  avg # of iterations =  2.0
     ethr =  4.58E-12,  avg # of iterations =  2.0
     ethr =  4.58E-12,  avg # of iterations =  2.0
     ethr =  4.58E-12,  avg # of iterations =  2.0

     total cpu time spent up to now is        4.6 secs

     End of self-consistent calculation

          k = 0.0000 0.0000 0.0000 (  1205 PWs)   bands (ev):

   -36.3526 -11.6554 -11.6554 -11.6554  12.1090  18.3796  18.3796  18.3796
    21.2974  21.2974  32.2198

          k = 0.0000-0.1250 0.1250 (  1203 PWs)   bands (ev):

   -36.3169 -11.8694 -11.7207 -11.6572  12.7278  18.0086  18.2512  18.9918
    20.8425  21.3082  32.6603

          k = 0.0000-0.2500 0.2500 (  1188 PWs)   bands (ev):

   -36.2296 -12.3646 -11.8751 -11.6617  14.0433  17.2387  17.9168  20.7039
    20.7804  21.4498  32.3749

          k = 0.0000-0.3750 0.3750 (  1192 PWs)   bands (ev):

   -36.1408 -12.8339 -12.0253 -11.6664  14.4384  16.5916  19.0049  21.2606
    21.7894  23.0266  30.5443

          k = 0.0000 0.5000-0.5000 (  1204 PWs)   bands (ev):

   -36.1036 -13.0217 -12.0863 -11.6684  14.2936  16.3497  20.3242  21.3319
    22.0137  24.4087  30.1448

          k =-0.1250-0.1250 0.2500 (  1195 PWs)   bands (ev):

   -36.2553 -12.2081 -11.7996 -11.7072  13.7712  17.6118  17.6563  20.3042
    20.4245  21.5950  33.4521

          k =-0.1250-0.2500 0.3750 (  1195 PWs)   bands (ev):

   -36.1671 -12.6340 -11.9895 -11.7308  14.8493  16.8966  17.6683  20.6643
    21.9195  22.5981  31.7674

          k =-0.1250 0.6250-0.5000 (  1207 PWs)   bands (ev):

   -36.1038 -12.9168 -12.1367 -11.7391  14.7786  16.5130  18.9344  21.1525
    22.2663  24.8593  29.9993

          k =-0.2500 0.7500-0.5000 (  1203 PWs)   bands (ev):

   -36.1040 -12.7748 -12.2334 -11.8005  15.5835  16.6269  17.6770  20.9424
    22.1079  25.4023  30.0998

          k =-0.2500 0.6250-0.3750 (  1208 PWs)   bands (ev):

   -36.0776 -12.7728 -12.4062 -11.8178  15.6201  16.7137  17.8324  21.3406
    22.1581  27.4615  28.5695

          k = 0.0000 0.0000 0.2500 (  1201 PWs)   bands (ev):

   -36.2826 -11.9329 -11.7878 -11.7878  13.3111  18.3314  18.3314  18.9522
    19.6525  21.8965  33.7538

          k = 0.0000-0.1250 0.3750 (  1206 PWs)   bands (ev):

   -36.1990 -12.3515 -11.9465 -11.8198  14.5684  17.7473  17.8111  19.4648
    20.4996  22.2875  32.8296

          k = 0.0000-0.2500 0.5000 (  1197 PWs)   bands (ev):

   -36.1141 -12.7856 -12.1006 -11.8141  14.9567  17.2229  17.7973  20.3317
    22.8551  22.8883  30.9904

          k = 0.0000 0.6250-0.3750 (  1196 PWs)   bands (ev):

   -36.0785 -12.9606 -12.1632 -11.8109  14.7665  16.9982  18.3739  20.2921
    24.0193  24.2873  29.8236

          k =-0.1250-0.1250 0.5000 (  1197 PWs)   bands (ev):

   -36.1184 -12.6223 -12.1497 -11.8989  15.5246  16.7254  18.0785  19.6708
    21.8645  23.1613  31.6633

          k =-0.1250 0.7500-0.3750 (  1194 PWs)   bands (ev):

   -36.0607 -12.8184 -12.3291 -11.9039  15.5248  16.8406  17.6042  20.3538
    22.7610  25.7768  29.8195

          k =-0.2500 0.2500 0.2500 (  1199 PWs)   bands (ev):

   -36.1889 -12.5569 -11.8281 -11.8281  15.0440  16.8968  16.8968  21.3431
    21.3431  22.6721  33.3099

          k =-0.2500 0.7500-0.2500 (  1202 PWs)   bands (ev):

   -36.0385 -12.6412 -12.6412 -11.9154  16.4225  16.4225  16.7454  21.8287
    21.8287  28.5351  29.2610

          k = 0.6250-0.6250 0.2500 (  1200 PWs)   bands (ev):

   -36.1218 -12.7714 -12.0816 -11.8567  15.6514  16.4628  17.5468  21.5429
    21.8901  25.3018  30.7387

          k = 0.5000-0.5000 0.2500 (  1196 PWs)   bands (ev):

   -36.0938 -12.8264 -12.2197 -11.8686  15.4575  16.3283  18.6606  21.6989
    22.0799  26.6845  28.7846

          k = 0.5000-0.6250 0.3750 (  1195 PWs)   bands (ev):

   -36.0898 -12.6691 -12.3161 -11.9887  16.0779  16.7943  17.5285  21.8758
    22.0810  27.7455  28.4764

          k = 0.0000 0.0000 0.5000 (  1196 PWs)   bands (ev):

   -36.1245 -12.3925 -12.1148 -12.1148  15.5304  16.9288  18.9798  18.9798
    20.5341  22.7747  32.6832

          k = 0.0000-0.1250 0.6250 (  1202 PWs)   bands (ev):

   -36.0489 -12.6694 -12.2780 -12.1568  15.6365  16.1505  18.9789  19.7364
    22.4984  23.8771  31.8537

          k = 0.0000 0.7500-0.2500 (  1194 PWs)   bands (ev):

   -36.0173 -12.8103 -12.3442 -12.1436  15.2577  16.2289  18.8388  19.7687
    24.0064  26.0656  29.1805

          k =-0.1250 0.8750-0.2500 (  1206 PWs)   bands (ev):

   -35.9993 -12.6982 -12.5065 -12.1962  15.3571  15.5935  18.9155  21.3238
    22.8651  26.5669  29.6675

          k = 0.5000-0.5000 0.5000 (  1220 PWs)   bands (ev):

   -36.0840 -12.3501 -12.3501 -12.3501  16.9242  16.9242  16.9242  22.1476
    22.1476  27.5123  29.9719

          k = 0.0000 0.0000 0.7500 (  1208 PWs)   bands (ev):

   -35.9830 -12.5858 -12.4497 -12.4497  14.9699  15.2225  21.1041  21.1041
    22.5622  24.7543  31.0231

          k = 0.0000 0.8750-0.1250 (  1212 PWs)   bands (ev):

   -35.9555 -12.6555 -12.5192 -12.4620  14.6546  14.7887  21.5279  21.7760
    23.7411  26.9647  28.1541

          k = 0.0000 0.0000-1.0000 (  1168 PWs)   bands (ev):

   -35.9297 -12.5901 -12.5901 -12.5901  14.2819  14.2819  23.6353  23.6353
    23.6353  27.1172  27.1172

     the Fermi energy is    17.9192 ev

!    total energy              =    -117.93421524 Ry
     estimated scf accuracy    <          5.4E-12 Ry
     smearing contrib. (-TS)   =       0.00094896 Ry
     internal energy E=F+TS    =    -117.93516421 Ry

     The total energy is F=E-TS. E is the sum of the following terms:
     one-electron contribution =     -15.72255040 Ry
     hartree contribution      =      14.87503967 Ry
     xc contribution           =     -18.44604113 Ry
     ewald contribution        =     -98.64161234 Ry

     convergence has been achieved in  10 iterations

     Writing all to output data dir ./tmp/Nb_k8.save/

     init_run     :      0.29s CPU      0.32s WALL (       1 calls)
     electrons    :      4.08s CPU      4.19s WALL (       1 calls)

     Called by init_run:
     wfcinit      :      0.15s CPU      0.16s WALL (       1 calls)
     potinit      :      0.01s CPU      0.01s WALL (       1 calls)
     hinit0       :      0.12s CPU      0.12s WALL (       1 calls)

     Called by electrons:
     c_bands      :      3.24s CPU      3.32s WALL (      11 calls)
     sum_band     :      0.71s CPU      0.73s WALL (      11 calls)
     v_of_rho     :      0.06s CPU      0.06s WALL (      11 calls)
     newd         :      0.07s CPU      0.09s WALL (      11 calls)
     mix_rho      :      0.01s CPU      0.01s WALL (      11 calls)

     Called by c_bands:
     init_us_2    :      0.08s CPU      0.09s WALL (     667 calls)
     init_us_2:cp :      0.08s CPU      0.08s WALL (     667 calls)
     cegterg      :      3.12s CPU      3.19s WALL (     319 calls)

     Called by *egterg:
     cdiaghg      :      0.07s CPU      0.07s WALL (    1046 calls)
     h_psi        :      2.84s CPU      2.90s WALL (    1104 calls)
     s_psi        :      0.05s CPU      0.06s WALL (    1104 calls)
     g_psi        :      0.01s CPU      0.01s WALL (     756 calls)

     Called by h_psi:
     h_psi:calbec :      0.06s CPU      0.07s WALL (    1104 calls)
     vloc_psi     :      2.71s CPU      2.77s WALL (    1104 calls)
     add_vuspsi   :      0.06s CPU      0.06s WALL (    1104 calls)

     General routines
     calbec       :      0.09s CPU      0.09s WALL (    1423 calls)
     fft          :      0.03s CPU      0.03s WALL (     122 calls)
     ffts         :      0.00s CPU      0.00s WALL (      11 calls)
     fftw         :      2.94s CPU      3.00s WALL (   21317 calls)


     PWSCF        :      4.43s CPU      4.58s WALL


   This run was terminated on:  21:11:29   6Mar2026            

=------------------------------------------------------------------------------=
   JOB DONE.
=------------------------------------------------------------------------------=
Note: The following floating-point exceptions are signalling: IEEE_INVALID_FLAG IEEE_DIVIDE_BY_ZERO IEEE_UNDERFLOW_FLAG

     total cpu time spent up to now is        4.6 secs

     End of self-consistent calculation

          k = 0.0000 0.0000 0.0000 (  1205 PWs)   bands (ev):

   -36.3526 -11.6554 -11.6554 -11.6554  12.1090  18.3796  18.3796  18.3796
    21.2974  21.2974  32.2198

          k = 0.0000-0.1250 0.1250 (  1203 PWs)   bands (ev):

   -36.3169 -11.8694 -11.7207 -11.6572  12.7278  18.0086  18.2512  18.9918
    20.8425  21.3082  32.6603

          k = 0.0000-0.2500 0.2500 (  1188 PWs)   bands (ev):

   -36.2296 -12.3646 -11.8751 -11.6617  14.0433  17.2387  17.9168  20.7039
    20.7804  21.4498  32.3749

          k = 0.0000-0.3750 0.3750 (  1192 PWs)   bands (ev):

   -36.1408 -12.8339 -12.0253 -11.6664  14.4384  16.5916  19.0049  21.2606
    21.7894  23.0266  30.5443

          k = 0.0000 0.5000-0.5000 (  1204 PWs)   bands (ev):

   -36.1036 -13.0217 -12.0863 -11.6684  14.2936  16.3497  20.3242  21.3319
    22.0137  24.4087  30.1448

          k =-0.1250-0.1250 0.2500 (  1195 PWs)   bands (ev):

   -36.2553 -12.2081 -11.7996 -11.7072  13.7712  17.6118  17.6563  20.3042
    20.4245  21.5950  33.4521

          k =-0.1250-0.2500 0.3750 (  1195 PWs)   bands (ev):

   -36.1671 -12.6340 -11.9895 -11.7308  14.8493  16.8966  17.6683  20.6643
    21.9195  22.5981  31.7674

          k =-0.1250 0.6250-0.5000 (  1207 PWs)   bands (ev):

   -36.1038 -12.9168 -12.1367 -11.7391  14.7786  16.5130  18.9344  21.1525
    22.2663  24.8593  29.9993

          k =-0.2500 0.7500-0.5000 (  1203 PWs)   bands (ev):

   -36.1040 -12.7748 -12.2334 -11.8005  15.5835  16.6269  17.6770  20.9424
    22.1079  25.4023  30.0998

          k =-0.2500 0.6250-0.3750 (  1208 PWs)   bands (ev):

   -36.0776 -12.7728 -12.4062 -11.8178  15.6201  16.7137  17.8324  21.3406
    22.1581  27.4615  28.5695

          k = 0.0000 0.0000 0.2500 (  1201 PWs)   bands (ev):

   -36.2826 -11.9329 -11.7878 -11.7878  13.3111  18.3314  18.3314  18.9522
    19.6525  21.8965  33.7538

          k = 0.0000-0.1250 0.3750 (  1206 PWs)   bands (ev):

   -36.1990 -12.3515 -11.9465 -11.8198  14.5684  17.7473  17.8111  19.4648
    20.4996  22.2875  32.8296

          k = 0.0000-0.2500 0.5000 (  1197 PWs)   bands (ev):

   -36.1141 -12.7856 -12.1006 -11.8141  14.9567  17.2229  17.7973  20.3317
    22.8551  22.8883  30.9904

          k = 0.0000 0.6250-0.3750 (  1196 PWs)   bands (ev):

   -36.0785 -12.9606 -12.1632 -11.8109  14.7665  16.9982  18.3739  20.2921
    24.0193  24.2873  29.8236

          k =-0.1250-0.1250 0.5000 (  1197 PWs)   bands (ev):

   -36.1184 -12.6223 -12.1497 -11.8989  15.5246  16.7254  18.0785  19.6708
    21.8645  23.1613  31.6633

          k =-0.1250 0.7500-0.3750 (  1194 PWs)   bands (ev):

   -36.0607 -12.8184 -12.3291 -11.9039  15.5248  16.8406  17.6042  20.3538
    22.7610  25.7768  29.8195

          k =-0.2500 0.2500 0.2500 (  1199 PWs)   bands (ev):

   -36.1889 -12.5569 -11.8281 -11.8281  15.0440  16.8968  16.8968  21.3431
    21.3431  22.6721  33.3099

          k =-0.2500 0.7500-0.2500 (  1202 PWs)   bands (ev):

   -36.0385 -12.6412 -12.6412 -11.9154  16.4225  16.4225  16.7454  21.8287
    21.8287  28.5351  29.2610

          k = 0.6250-0.6250 0.2500 (  1200 PWs)   bands (ev):

   -36.1218 -12.7714 -12.0816 -11.8567  15.6514  16.4628  17.5468  21.5429
    21.8901  25.3018  30.7387

          k = 0.5000-0.5000 0.2500 (  1196 PWs)   bands (ev):

   -36.0938 -12.8264 -12.2197 -11.8686  15.4575  16.3283  18.6606  21.6989
    22.0799  26.6845  28.7846

          k = 0.5000-0.6250 0.3750 (  1195 PWs)   bands (ev):

   -36.0898 -12.6691 -12.3161 -11.9887  16.0779  16.7943  17.5285  21.8758
    22.0810  27.7455  28.4764

          k = 0.0000 0.0000 0.5000 (  1196 PWs)   bands (ev):

   -36.1245 -12.3925 -12.1148 -12.1148  15.5304  16.9288  18.9798  18.9798
    20.5341  22.7747  32.6832

          k = 0.0000-0.1250 0.6250 (  1202 PWs)   bands (ev):

   -36.0489 -12.6694 -12.2780 -12.1568  15.6365  16.1505  18.9789  19.7364
    22.4984  23.8771  31.8537

          k = 0.0000 0.7500-0.2500 (  1194 PWs)   bands (ev):

   -36.0173 -12.8103 -12.3442 -12.1436  15.2577  16.2289  18.8388  19.7687
    24.0064  26.0656  29.1805

          k =-0.1250 0.8750-0.2500 (  1206 PWs)   bands (ev):

   -35.9993 -12.6982 -12.5065 -12.1962  15.3571  15.5935  18.9155  21.3238
    22.8651  26.5669  29.6675

          k = 0.5000-0.5000 0.5000 (  1220 PWs)   bands (ev):

   -36.0840 -12.3501 -12.3501 -12.3501  16.9242  16.9242  16.9242  22.1476
    22.1476  27.5123  29.9719

          k = 0.0000 0.0000 0.7500 (  1208 PWs)   bands (ev):

   -35.9830 -12.5858 -12.4497 -12.4497  14.9699  15.2225  21.1041  21.1041
    22.5622  24.7543  31.0231

          k = 0.0000 0.8750-0.1250 (  1212 PWs)   bands (ev):

   -35.9555 -12.6555 -12.5192 -12.4620  14.6546  14.7887  21.5279  21.7760
    23.7411  26.9647  28.1541

          k = 0.0000 0.0000-1.0000 (  1168 PWs)   bands (ev):

   -35.9297 -12.5901 -12.5901 -12.5901  14.2819  14.2819  23.6353  23.6353
    23.6353  27.1172  27.1172

     the Fermi energy is    17.9192 ev

!    total energy              =    -117.93421524 Ry
     estimated scf accuracy    <          5.4E-12 Ry
     smearing contrib. (-TS)   =       0.00094896 Ry
     internal energy E=F+TS    =    -117.93516421 Ry

     The total energy is F=E-TS. E is the sum of the following terms:
     one-electron contribution =     -15.72255040 Ry
     hartree contribution      =      14.87503967 Ry
     xc contribution           =     -18.44604113 Ry
     ewald contribution        =     -98.64161234 Ry

     convergence has been achieved in  10 iterations

     Writing all to output data dir ./tmp/Nb_k8.save/

     init_run     :      0.29s CPU      0.32s WALL (       1 calls)
     electrons    :      4.11s CPU      4.23s WALL (       1 calls)

     Called by init_run:
     wfcinit      :      0.15s CPU      0.16s WALL (       1 calls)
     potinit      :      0.01s CPU      0.01s WALL (       1 calls)
     hinit0       :      0.12s CPU      0.12s WALL (       1 calls)

     Called by electrons:
     c_bands      :      3.27s CPU      3.37s WALL (      11 calls)
     sum_band     :      0.71s CPU      0.73s WALL (      11 calls)
     v_of_rho     :      0.06s CPU      0.06s WALL (      11 calls)
     newd         :      0.07s CPU      0.09s WALL (      11 calls)
     mix_rho      :      0.01s CPU      0.01s WALL (      11 calls)

     Called by c_bands:
     init_us_2    :      0.08s CPU      0.09s WALL (     667 calls)
     init_us_2:cp :      0.08s CPU      0.09s WALL (     667 calls)
     cegterg      :      3.14s CPU      3.23s WALL (     319 calls)

     Called by *egterg:
     cdiaghg      :      0.07s CPU      0.07s WALL (    1046 calls)
     h_psi        :      2.86s CPU      2.93s WALL (    1104 calls)
     s_psi        :      0.06s CPU      0.06s WALL (    1104 calls)
     g_psi        :      0.01s CPU      0.01s WALL (     756 calls)

     Called by h_psi:
     h_psi:calbec :      0.06s CPU      0.07s WALL (    1104 calls)
     vloc_psi     :      2.73s CPU      2.80s WALL (    1104 calls)
     add_vuspsi   :      0.06s CPU      0.06s WALL (    1104 calls)

     General routines
     calbec       :      0.09s CPU      0.09s WALL (    1423 calls)
     fft          :      0.03s CPU      0.03s WALL (     122 calls)
     ffts         :      0.00s CPU      0.00s WALL (      11 calls)
     fftw         :      2.96s CPU      3.02s WALL (   21317 calls)


     PWSCF        :      4.46s CPU      4.62s WALL


   This run was terminated on:  21:11:29   6Mar2026            

=------------------------------------------------------------------------------=
   JOB DONE.
=------------------------------------------------------------------------------=
Note: The following floating-point exceptions are signalling: IEEE_INVALID_FLAG IEEE_DIVIDE_BY_ZERO IEEE_UNDERFLOW_FLAG

     total cpu time spent up to now is        4.6 secs

     End of self-consistent calculation

          k = 0.0000 0.0000 0.0000 (  1205 PWs)   bands (ev):

   -36.3526 -11.6554 -11.6554 -11.6554  12.1090  18.3796  18.3796  18.3796
    21.2974  21.2974  32.2198

          k = 0.0000-0.1250 0.1250 (  1203 PWs)   bands (ev):

   -36.3169 -11.8694 -11.7207 -11.6572  12.7278  18.0086  18.2512  18.9918
    20.8425  21.3082  32.6603

          k = 0.0000-0.2500 0.2500 (  1188 PWs)   bands (ev):

   -36.2296 -12.3646 -11.8751 -11.6617  14.0433  17.2387  17.9168  20.7039
    20.7804  21.4498  32.3749

          k = 0.0000-0.3750 0.3750 (  1192 PWs)   bands (ev):

   -36.1408 -12.8339 -12.0253 -11.6664  14.4384  16.5916  19.0049  21.2606
    21.7894  23.0266  30.5443

          k = 0.0000 0.5000-0.5000 (  1204 PWs)   bands (ev):

   -36.1036 -13.0217 -12.0863 -11.6684  14.2936  16.3497  20.3242  21.3319
    22.0137  24.4087  30.1448

          k =-0.1250-0.1250 0.2500 (  1195 PWs)   bands (ev):

   -36.2553 -12.2081 -11.7996 -11.7072  13.7712  17.6118  17.6563  20.3042
    20.4245  21.5950  33.4521

          k =-0.1250-0.2500 0.3750 (  1195 PWs)   bands (ev):

   -36.1671 -12.6340 -11.9895 -11.7308  14.8493  16.8966  17.6683  20.6643
    21.9195  22.5981  31.7674

          k =-0.1250 0.6250-0.5000 (  1207 PWs)   bands (ev):

   -36.1038 -12.9168 -12.1367 -11.7391  14.7786  16.5130  18.9344  21.1525
    22.2663  24.8593  29.9993

          k =-0.2500 0.7500-0.5000 (  1203 PWs)   bands (ev):

   -36.1040 -12.7748 -12.2334 -11.8005  15.5835  16.6269  17.6770  20.9424
    22.1079  25.4023  30.0998

          k =-0.2500 0.6250-0.3750 (  1208 PWs)   bands (ev):

   -36.0776 -12.7728 -12.4062 -11.8178  15.6201  16.7137  17.8324  21.3406
    22.1581  27.4615  28.5695

          k = 0.0000 0.0000 0.2500 (  1201 PWs)   bands (ev):

   -36.2826 -11.9329 -11.7878 -11.7878  13.3111  18.3314  18.3314  18.9522
    19.6525  21.8965  33.7538

          k = 0.0000-0.1250 0.3750 (  1206 PWs)   bands (ev):

   -36.1990 -12.3515 -11.9465 -11.8198  14.5684  17.7473  17.8111  19.4648
    20.4996  22.2875  32.8296

          k = 0.0000-0.2500 0.5000 (  1197 PWs)   bands (ev):

   -36.1141 -12.7856 -12.1006 -11.8141  14.9567  17.2229  17.7973  20.3317
    22.8551  22.8883  30.9904

          k = 0.0000 0.6250-0.3750 (  1196 PWs)   bands (ev):

   -36.0785 -12.9606 -12.1632 -11.8109  14.7665  16.9982  18.3739  20.2921
    24.0193  24.2873  29.8236

          k =-0.1250-0.1250 0.5000 (  1197 PWs)   bands (ev):

   -36.1184 -12.6223 -12.1497 -11.8989  15.5246  16.7254  18.0785  19.6708
    21.8645  23.1613  31.6633

          k =-0.1250 0.7500-0.3750 (  1194 PWs)   bands (ev):

   -36.0607 -12.8184 -12.3291 -11.9039  15.5248  16.8406  17.6042  20.3538
    22.7610  25.7768  29.8195

          k =-0.2500 0.2500 0.2500 (  1199 PWs)   bands (ev):

   -36.1889 -12.5569 -11.8281 -11.8281  15.0440  16.8968  16.8968  21.3431
    21.3431  22.6721  33.3099

          k =-0.2500 0.7500-0.2500 (  1202 PWs)   bands (ev):

   -36.0385 -12.6412 -12.6412 -11.9154  16.4225  16.4225  16.7454  21.8287
    21.8287  28.5351  29.2610

          k = 0.6250-0.6250 0.2500 (  1200 PWs)   bands (ev):

   -36.1218 -12.7714 -12.0816 -11.8567  15.6514  16.4628  17.5468  21.5429
    21.8901  25.3018  30.7387

          k = 0.5000-0.5000 0.2500 (  1196 PWs)   bands (ev):

   -36.0938 -12.8264 -12.2197 -11.8686  15.4575  16.3283  18.6606  21.6989
    22.0799  26.6845  28.7846

          k = 0.5000-0.6250 0.3750 (  1195 PWs)   bands (ev):

   -36.0898 -12.6691 -12.3161 -11.9887  16.0779  16.7943  17.5285  21.8758
    22.0810  27.7455  28.4764

          k = 0.0000 0.0000 0.5000 (  1196 PWs)   bands (ev):

   -36.1245 -12.3925 -12.1148 -12.1148  15.5304  16.9288  18.9798  18.9798
    20.5341  22.7747  32.6832

          k = 0.0000-0.1250 0.6250 (  1202 PWs)   bands (ev):

   -36.0489 -12.6694 -12.2780 -12.1568  15.6365  16.1505  18.9789  19.7364
    22.4984  23.8771  31.8537

          k = 0.0000 0.7500-0.2500 (  1194 PWs)   bands (ev):

   -36.0173 -12.8103 -12.3442 -12.1436  15.2577  16.2289  18.8388  19.7687
    24.0064  26.0656  29.1805

          k =-0.1250 0.8750-0.2500 (  1206 PWs)   bands (ev):

   -35.9993 -12.6982 -12.5065 -12.1962  15.3571  15.5935  18.9155  21.3238
    22.8651  26.5669  29.6675

          k = 0.5000-0.5000 0.5000 (  1220 PWs)   bands (ev):

   -36.0840 -12.3501 -12.3501 -12.3501  16.9242  16.9242  16.9242  22.1476
    22.1476  27.5123  29.9719

          k = 0.0000 0.0000 0.7500 (  1208 PWs)   bands (ev):

   -35.9830 -12.5858 -12.4497 -12.4497  14.9699  15.2225  21.1041  21.1041
    22.5622  24.7543  31.0231

          k = 0.0000 0.8750-0.1250 (  1212 PWs)   bands (ev):

   -35.9555 -12.6555 -12.5192 -12.4620  14.6546  14.7887  21.5279  21.7760
    23.7411  26.9647  28.1541

          k = 0.0000 0.0000-1.0000 (  1168 PWs)   bands (ev):

   -35.9297 -12.5901 -12.5901 -12.5901  14.2819  14.2819  23.6353  23.6353
    23.6353  27.1172  27.1172

     the Fermi energy is    17.9192 ev

!    total energy              =    -117.93421524 Ry
     estimated scf accuracy    <          5.4E-12 Ry
     smearing contrib. (-TS)   =       0.00094896 Ry
     internal energy E=F+TS    =    -117.93516421 Ry

     The total energy is F=E-TS. E is the sum of the following terms:
     one-electron contribution =     -15.72255040 Ry
     hartree contribution      =      14.87503967 Ry
     xc contribution           =     -18.44604113 Ry
     ewald contribution        =     -98.64161234 Ry

     convergence has been achieved in  10 iterations

     Writing all to output data dir ./tmp/Nb_k8.save/

     total cpu time spent up to now is        4.6 secs

     End of self-consistent calculation

          k = 0.0000 0.0000 0.0000 (  1205 PWs)   bands (ev):

   -36.3526 -11.6554 -11.6554 -11.6554  12.1090  18.3796  18.3796  18.3796
    21.2974  21.2974  32.2198

          k = 0.0000-0.1250 0.1250 (  1203 PWs)   bands (ev):

   -36.3169 -11.8694 -11.7207 -11.6572  12.7278  18.0086  18.2512  18.9918
    20.8425  21.3082  32.6603

          k = 0.0000-0.2500 0.2500 (  1188 PWs)   bands (ev):

   -36.2296 -12.3646 -11.8751 -11.6617  14.0433  17.2387  17.9168  20.7039
    20.7804  21.4498  32.3749

          k = 0.0000-0.3750 0.3750 (  1192 PWs)   bands (ev):

   -36.1408 -12.8339 -12.0253 -11.6664  14.4384  16.5916  19.0049  21.2606
    21.7894  23.0266  30.5443

          k = 0.0000 0.5000-0.5000 (  1204 PWs)   bands (ev):

   -36.1036 -13.0217 -12.0863 -11.6684  14.2936  16.3497  20.3242  21.3319
    22.0137  24.4087  30.1448

          k =-0.1250-0.1250 0.2500 (  1195 PWs)   bands (ev):

   -36.2553 -12.2081 -11.7996 -11.7072  13.7712  17.6118  17.6563  20.3042
    20.4245  21.5950  33.4521

          k =-0.1250-0.2500 0.3750 (  1195 PWs)   bands (ev):

   -36.1671 -12.6340 -11.9895 -11.7308  14.8493  16.8966  17.6683  20.6643
    21.9195  22.5981  31.7674

          k =-0.1250 0.6250-0.5000 (  1207 PWs)   bands (ev):

   -36.1038 -12.9168 -12.1367 -11.7391  14.7786  16.5130  18.9344  21.1525
    22.2663  24.8593  29.9993

          k =-0.2500 0.7500-0.5000 (  1203 PWs)   bands (ev):

   -36.1040 -12.7748 -12.2334 -11.8005  15.5835  16.6269  17.6770  20.9424
    22.1079  25.4023  30.0998

          k =-0.2500 0.6250-0.3750 (  1208 PWs)   bands (ev):

   -36.0776 -12.7728 -12.4062 -11.8178  15.6201  16.7137  17.8324  21.3406
    22.1581  27.4615  28.5695

          k = 0.0000 0.0000 0.2500 (  1201 PWs)   bands (ev):

   -36.2826 -11.9329 -11.7878 -11.7878  13.3111  18.3314  18.3314  18.9522
    19.6525  21.8965  33.7538

          k = 0.0000-0.1250 0.3750 (  1206 PWs)   bands (ev):

   -36.1990 -12.3515 -11.9465 -11.8198  14.5684  17.7473  17.8111  19.4648
    20.4996  22.2875  32.8296

          k = 0.0000-0.2500 0.5000 (  1197 PWs)   bands (ev):

   -36.1141 -12.7856 -12.1006 -11.8141  14.9567  17.2229  17.7973  20.3317
    22.8551  22.8883  30.9904

          k = 0.0000 0.6250-0.3750 (  1196 PWs)   bands (ev):

   -36.0785 -12.9606 -12.1632 -11.8109  14.7665  16.9982  18.3739  20.2921
    24.0193  24.2873  29.8236

          k =-0.1250-0.1250 0.5000 (  1197 PWs)   bands (ev):

   -36.1184 -12.6223 -12.1497 -11.8989  15.5246  16.7254  18.0785  19.6708
    21.8645  23.1613  31.6633

          k =-0.1250 0.7500-0.3750 (  1194 PWs)   bands (ev):

   -36.0607 -12.8184 -12.3291 -11.9039  15.5248  16.8406  17.6042  20.3538
    22.7610  25.7768  29.8195

          k =-0.2500 0.2500 0.2500 (  1199 PWs)   bands (ev):

   -36.1889 -12.5569 -11.8281 -11.8281  15.0440  16.8968  16.8968  21.3431
    21.3431  22.6721  33.3099

          k =-0.2500 0.7500-0.2500 (  1202 PWs)   bands (ev):

   -36.0385 -12.6412 -12.6412 -11.9154  16.4225  16.4225  16.7454  21.8287
    21.8287  28.5351  29.2610

          k = 0.6250-0.6250 0.2500 (  1200 PWs)   bands (ev):

   -36.1218 -12.7714 -12.0816 -11.8567  15.6514  16.4628  17.5468  21.5429
    21.8901  25.3018  30.7387

          k = 0.5000-0.5000 0.2500 (  1196 PWs)   bands (ev):

   -36.0938 -12.8264 -12.2197 -11.8686  15.4575  16.3283  18.6606  21.6989
    22.0799  26.6845  28.7846

          k = 0.5000-0.6250 0.3750 (  1195 PWs)   bands (ev):

   -36.0898 -12.6691 -12.3161 -11.9887  16.0779  16.7943  17.5285  21.8758
    22.0810  27.7455  28.4764

          k = 0.0000 0.0000 0.5000 (  1196 PWs)   bands (ev):

   -36.1245 -12.3925 -12.1148 -12.1148  15.5304  16.9288  18.9798  18.9798
    20.5341  22.7747  32.6832

          k = 0.0000-0.1250 0.6250 (  1202 PWs)   bands (ev):

   -36.0489 -12.6694 -12.2780 -12.1568  15.6365  16.1505  18.9789  19.7364
    22.4984  23.8771  31.8537

          k = 0.0000 0.7500-0.2500 (  1194 PWs)   bands (ev):

   -36.0173 -12.8103 -12.3442 -12.1436  15.2577  16.2289  18.8388  19.7687
    24.0064  26.0656  29.1805

          k =-0.1250 0.8750-0.2500 (  1206 PWs)   bands (ev):

   -35.9993 -12.6982 -12.5065 -12.1962  15.3571  15.5935  18.9155  21.3238
    22.8651  26.5669  29.6675

          k = 0.5000-0.5000 0.5000 (  1220 PWs)   bands (ev):

   -36.0840 -12.3501 -12.3501 -12.3501  16.9242  16.9242  16.9242  22.1476
    22.1476  27.5123  29.9719

          k = 0.0000 0.0000 0.7500 (  1208 PWs)   bands (ev):

   -35.9830 -12.5858 -12.4497 -12.4497  14.9699  15.2225  21.1041  21.1041
    22.5622  24.7543  31.0231

          k = 0.0000 0.8750-0.1250 (  1212 PWs)   bands (ev):

   -35.9555 -12.6555 -12.5192 -12.4620  14.6546  14.7887  21.5279  21.7760
    23.7411  26.9647  28.1541

          k = 0.0000 0.0000-1.0000 (  1168 PWs)   bands (ev):

   -35.9297 -12.5901 -12.5901 -12.5901  14.2819  14.2819  23.6353  23.6353
    23.6353  27.1172  27.1172

     the Fermi energy is    17.9192 ev

!    total energy              =    -117.93421524 Ry
     estimated scf accuracy    <          5.4E-12 Ry
     smearing contrib. (-TS)   =       0.00094896 Ry
     internal energy E=F+TS    =    -117.93516421 Ry

     The total energy is F=E-TS. E is the sum of the following terms:
     one-electron contribution =     -15.72255040 Ry
     hartree contribution      =      14.87503967 Ry
     xc contribution           =     -18.44604113 Ry
     ewald contribution        =     -98.64161234 Ry

     convergence has been achieved in  10 iterations

     Writing all to output data dir ./tmp/Nb_k8.save/

     init_run     :      0.29s CPU      0.32s WALL (       1 calls)
     electrons    :      4.11s CPU      4.25s WALL (       1 calls)

     Called by init_run:
     wfcinit      :      0.15s CPU      0.16s WALL (       1 calls)
     potinit      :      0.01s CPU      0.01s WALL (       1 calls)
     hinit0       :      0.12s CPU      0.12s WALL (       1 calls)

     Called by electrons:
     c_bands      :      3.27s CPU      3.37s WALL (      11 calls)
     sum_band     :      0.72s CPU      0.74s WALL (      11 calls)
     v_of_rho     :      0.06s CPU      0.06s WALL (      11 calls)
     newd         :      0.07s CPU      0.09s WALL (      11 calls)
     mix_rho      :      0.01s CPU      0.01s WALL (      11 calls)

     Called by c_bands:
     init_us_2    :      0.08s CPU      0.09s WALL (     667 calls)
     init_us_2:cp :      0.08s CPU      0.09s WALL (     667 calls)
     cegterg      :      3.14s CPU      3.24s WALL (     319 calls)

     Called by *egterg:
     cdiaghg      :      0.07s CPU      0.07s WALL (    1046 calls)
     h_psi        :      2.86s CPU      2.93s WALL (    1104 calls)
     s_psi        :      0.06s CPU      0.06s WALL (    1104 calls)
     g_psi        :      0.01s CPU      0.01s WALL (     756 calls)

     Called by h_psi:
     h_psi:calbec :      0.06s CPU      0.07s WALL (    1104 calls)
     vloc_psi     :      2.73s CPU      2.80s WALL (    1104 calls)
     add_vuspsi   :      0.06s CPU      0.06s WALL (    1104 calls)

     General routines
     calbec       :      0.09s CPU      0.09s WALL (    1423 calls)
     fft          :      0.03s CPU      0.03s WALL (     122 calls)
     ffts         :      0.00s CPU      0.00s WALL (      11 calls)
     fftw         :      2.96s CPU      3.04s WALL (   21317 calls)


     PWSCF        :      4.46s CPU      4.64s WALL


   This run was terminated on:  21:11:29   6Mar2026            

=------------------------------------------------------------------------------=
   JOB DONE.
=------------------------------------------------------------------------------=
Note: The following floating-point exceptions are signalling: IEEE_INVALID_FLAG IEEE_DIVIDE_BY_ZERO IEEE_UNDERFLOW_FLAG

     init_run     :      0.29s CPU      0.32s WALL (       1 calls)
     electrons    :      4.10s CPU      4.25s WALL (       1 calls)

     Called by init_run:
     wfcinit      :      0.15s CPU      0.16s WALL (       1 calls)
     potinit      :      0.01s CPU      0.01s WALL (       1 calls)
     hinit0       :      0.12s CPU      0.12s WALL (       1 calls)

     Called by electrons:
     c_bands      :      3.26s CPU      3.37s WALL (      11 calls)
     sum_band     :      0.72s CPU      0.75s WALL (      11 calls)
     v_of_rho     :      0.06s CPU      0.07s WALL (      11 calls)
     newd         :      0.07s CPU      0.10s WALL (      11 calls)
     mix_rho      :      0.01s CPU      0.01s WALL (      11 calls)

     Called by c_bands:
     init_us_2    :      0.08s CPU      0.09s WALL (     667 calls)
     init_us_2:cp :      0.08s CPU      0.09s WALL (     667 calls)
     cegterg      :      3.13s CPU      3.23s WALL (     319 calls)

     Called by *egterg:
     cdiaghg      :      0.07s CPU      0.07s WALL (    1046 calls)
     h_psi        :      2.84s CPU      2.93s WALL (    1104 calls)
     s_psi        :      0.06s CPU      0.06s WALL (    1104 calls)
     g_psi        :      0.01s CPU      0.01s WALL (     756 calls)

     Called by h_psi:
     h_psi:calbec :      0.06s CPU      0.07s WALL (    1104 calls)
     vloc_psi     :      2.72s CPU      2.79s WALL (    1104 calls)
     add_vuspsi   :      0.06s CPU      0.06s WALL (    1104 calls)

     General routines
     calbec       :      0.09s CPU      0.09s WALL (    1423 calls)
     fft          :      0.03s CPU      0.03s WALL (     122 calls)
     ffts         :      0.00s CPU      0.00s WALL (      11 calls)
     fftw         :      2.95s CPU      3.04s WALL (   21317 calls)


     PWSCF        :      4.45s CPU      4.64s WALL


   This run was terminated on:  21:11:29   6Mar2026            

=------------------------------------------------------------------------------=
   JOB DONE.
=------------------------------------------------------------------------------=
Note: The following floating-point exceptions are signalling: IEEE_INVALID_FLAG IEEE_DIVIDE_BY_ZERO IEEE_UNDERFLOW_FLAG
