
     Program PWSCF v.7.2 starts on  6Mar2026 at 23:14:30 

     This program is part of the open-source Quantum ESPRESSO suite
     for quantum simulation of materials; please cite
         "P. Giannozzi et al., J. Phys.:Condens. Matter 21 395502 (2009);
         "P. Giannozzi et al., J. Phys.:Condens. Matter 29 465901 (2017);
         "P. Giannozzi et al., J. Chem. Phys. 152 154105 (2020);
          URL http://www.quantum-espresso.org", 
     in publications or presentations arising from this work. More details at
     http://www.quantum-espresso.org/quote

     Serial multi-threaded version, running on    1 processor cores
     0 MiB available memory on the printing compute node when the environment starts

     Reading input from results/eos/Nb_eos_6.10.in

     Program PWSCF v.7.2 starts on  6Mar2026 at 23:14:30 

     This program is part of the open-source Quantum ESPRESSO suite
     for quantum simulation of materials; please cite
         "P. Giannozzi et al., J. Phys.:Condens. Matter 21 395502 (2009);
         "P. Giannozzi et al., J. Phys.:Condens. Matter 29 465901 (2017);
         "P. Giannozzi et al., J. Chem. Phys. 152 154105 (2020);
          URL http://www.quantum-espresso.org", 
     in publications or presentations arising from this work. More details at
     http://www.quantum-espresso.org/quote

     Serial multi-threaded version, running on    1 processor cores
     0 MiB available memory on the printing compute node when the environment starts

     Reading input from results/eos/Nb_eos_6.10.in

     Program PWSCF v.7.2 starts on  6Mar2026 at 23:14:30 

     This program is part of the open-source Quantum ESPRESSO suite
     for quantum simulation of materials; please cite
         "P. Giannozzi et al., J. Phys.:Condens. Matter 21 395502 (2009);
         "P. Giannozzi et al., J. Phys.:Condens. Matter 29 465901 (2017);
         "P. Giannozzi et al., J. Chem. Phys. 152 154105 (2020);
          URL http://www.quantum-espresso.org", 
     in publications or presentations arising from this work. More details at
     http://www.quantum-espresso.org/quote

     Serial multi-threaded version, running on    1 processor cores
     0 MiB available memory on the printing compute node when the environment starts

     Reading input from results/eos/Nb_eos_6.10.in

     Program PWSCF v.7.2 starts on  6Mar2026 at 23:14:30 

     This program is part of the open-source Quantum ESPRESSO suite
     for quantum simulation of materials; please cite
         "P. Giannozzi et al., J. Phys.:Condens. Matter 21 395502 (2009);
         "P. Giannozzi et al., J. Phys.:Condens. Matter 29 465901 (2017);
         "P. Giannozzi et al., J. Chem. Phys. 152 154105 (2020);
          URL http://www.quantum-espresso.org", 
     in publications or presentations arising from this work. More details at
     http://www.quantum-espresso.org/quote

     Serial multi-threaded version, running on    1 processor cores
     0 MiB available memory on the printing compute node when the environment starts


     Program PWSCF v.7.2 starts on  6Mar2026 at 23:14:30 

     This program is part of the open-source Quantum ESPRESSO suite
     for quantum simulation of materials; please cite
         "P. Giannozzi et al., J. Phys.:Condens. Matter 21 395502 (2009);
         "P. Giannozzi et al., J. Phys.:Condens. Matter 29 465901 (2017);
         "P. Giannozzi et al., J. Chem. Phys. 152 154105 (2020);
          URL http://www.quantum-espresso.org", 
     in publications or presentations arising from this work. More details at
     http://www.quantum-espresso.org/quote

     Serial multi-threaded version, running on    1 processor cores
     0 MiB available memory on the printing compute node when the environment starts

     Current dimensions of program PWSCF are:
     Max number of different atomic species (ntypx) = 10
     Max number of k-points (npk) =  40000
     Max angular momentum in pseudopotentials (lmaxx) =  4
     Reading input from results/eos/Nb_eos_6.10.in


     Current dimensions of program PWSCF are:
     Max number of different atomic species (ntypx) = 10
     Max number of k-points (npk) =  40000
     Max angular momentum in pseudopotentials (lmaxx) =  4
     Reading input from results/eos/Nb_eos_6.10.in

     Current dimensions of program PWSCF are:
     Max number of different atomic species (ntypx) = 10
     Max number of k-points (npk) =  40000
     Max angular momentum in pseudopotentials (lmaxx) =  4

     Current dimensions of program PWSCF are:
     Max number of different atomic species (ntypx) = 10
     Max number of k-points (npk) =  40000
     Max angular momentum in pseudopotentials (lmaxx) =  4

     Program PWSCF v.7.2 starts on  6Mar2026 at 23:14:30 

     This program is part of the open-source Quantum ESPRESSO suite
     for quantum simulation of materials; please cite
         "P. Giannozzi et al., J. Phys.:Condens. Matter 21 395502 (2009);
         "P. Giannozzi et al., J. Phys.:Condens. Matter 29 465901 (2017);
         "P. Giannozzi et al., J. Chem. Phys. 152 154105 (2020);
          URL http://www.quantum-espresso.org", 
     in publications or presentations arising from this work. More details at
     http://www.quantum-espresso.org/quote

     Serial multi-threaded version, running on    1 processor cores
     0 MiB available memory on the printing compute node when the environment starts

     Reading input from results/eos/Nb_eos_6.10.in

     Current dimensions of program PWSCF are:
     Max number of different atomic species (ntypx) = 10
     Max number of k-points (npk) =  40000
     Max angular momentum in pseudopotentials (lmaxx) =  4

     Current dimensions of program PWSCF are:
     Max number of different atomic species (ntypx) = 10
     Max number of k-points (npk) =  40000
     Max angular momentum in pseudopotentials (lmaxx) =  4


     G-vector sticks info
     --------------------
     sticks:   dense  smooth     PW     G-vecs:    dense   smooth      PW
     Sum        1159     579    181                25267     8853    1553

     Using Slab Decomposition



     bravais-lattice index     =            3
     lattice parameter (alat)  =       6.1000  a.u.
     unit-cell volume          =     113.4905 (a.u.)^3
     number of atoms/cell      =            1
     number of atomic types    =            1
     number of electrons       =        13.00
     number of Kohn-Sham states=           11
     kinetic-energy cutoff     =      70.0000  Ry
     charge density cutoff     =     560.0000  Ry
     scf convergence threshold =      1.0E-10
     mixing beta               =       0.4000
     number of iterations used =            8  plain     mixing
     Exchange-correlation= SLA  PW   PBE  PBE
                           (   1   4   3   4   0   0   0)

     celldm(1)=   6.100000  celldm(2)=   0.000000  celldm(3)=   0.000000
     celldm(4)=   0.000000  celldm(5)=   0.000000  celldm(6)=   0.000000

     crystal axes: (cart. coord. in units of alat)
               a(1) = (   0.500000   0.500000   0.500000 )  
               a(2) = (  -0.500000   0.500000   0.500000 )  
               a(3) = (  -0.500000  -0.500000   0.500000 )  

     reciprocal axes: (cart. coord. in units 2 pi/alat)
               b(1) = (  1.000000  0.000000  1.000000 )  
               b(2) = ( -1.000000  1.000000  0.000000 )  
               b(3) = (  0.000000 -1.000000  1.000000 )  


     PseudoPot. # 1 for Nb read from file:
     ./pseudo/nb_pbe_v1.uspp.F.UPF
     MD5 check sum: 573aab8a2fa660278ed4a62cd769473f
     Pseudo is Ultrasoft + core correction, Zval = 13.0
     Generated by new atomic code, or converted to UPF format
     Using radial grid of  887 points,  6 beta functions with: 
                l(1) =   0
                l(2) =   0
                l(3) =   1
                l(4) =   1
                l(5) =   2
                l(6) =   2
     Q(r) pseudized with  6 coefficients,  rinner =    1.000   1.000   1.000
                                                       1.000   1.000

     atomic species   valence    mass     pseudopotential
        Nb            13.00    92.90600     Nb( 1.00)

     48 Sym. Ops., with inversion, found



   Cartesian axes

     site n.     atom                  positions (alat units)
         1           Nb  tau(   1) = (   0.0000000   0.0000000   0.0000000  )

     number of k points=   145  Marzari-Vanderbilt smearing, width (Ry)=  0.0300

     Number of k-points >= 100: set verbosity='high' to print them.

     Dense  grid:    25267 G-vectors     FFT dimensions: (  40,  40,  40)

     Smooth grid:     8853 G-vectors     FFT dimensions: (  30,  30,  30)

     Estimated max dynamical RAM per process >     116.57 MB



     G-vector sticks info
     --------------------
     sticks:   dense  smooth     PW     G-vecs:    dense   smooth      PW
     Sum        1159     579    181                25267     8853    1553

     Using Slab Decomposition



     bravais-lattice index     =            3
     lattice parameter (alat)  =       6.1000  a.u.
     unit-cell volume          =     113.4905 (a.u.)^3
     number of atoms/cell      =            1
     number of atomic types    =            1
     number of electrons       =        13.00
     number of Kohn-Sham states=           11
     kinetic-energy cutoff     =      70.0000  Ry
     charge density cutoff     =     560.0000  Ry
     scf convergence threshold =      1.0E-10
     mixing beta               =       0.4000
     number of iterations used =            8  plain     mixing
     Exchange-correlation= SLA  PW   PBE  PBE
                           (   1   4   3   4   0   0   0)

     celldm(1)=   6.100000  celldm(2)=   0.000000  celldm(3)=   0.000000
     celldm(4)=   0.000000  celldm(5)=   0.000000  celldm(6)=   0.000000

     crystal axes: (cart. coord. in units of alat)
               a(1) = (   0.500000   0.500000   0.500000 )  
               a(2) = (  -0.500000   0.500000   0.500000 )  
               a(3) = (  -0.500000  -0.500000   0.500000 )  

     reciprocal axes: (cart. coord. in units 2 pi/alat)
               b(1) = (  1.000000  0.000000  1.000000 )  
               b(2) = ( -1.000000  1.000000  0.000000 )  
               b(3) = (  0.000000 -1.000000  1.000000 )  


     PseudoPot. # 1 for Nb read from file:
     ./pseudo/nb_pbe_v1.uspp.F.UPF
     MD5 check sum: 573aab8a2fa660278ed4a62cd769473f
     Pseudo is Ultrasoft + core correction, Zval = 13.0
     Generated by new atomic code, or converted to UPF format
     Using radial grid of  887 points,  6 beta functions with: 
                l(1) =   0
                l(2) =   0
                l(3) =   1
                l(4) =   1
                l(5) =   2
                l(6) =   2
     Q(r) pseudized with  6 coefficients,  rinner =    1.000   1.000   1.000
                                                       1.000   1.000

     atomic species   valence    mass     pseudopotential
        Nb            13.00    92.90600     Nb( 1.00)

     48 Sym. Ops., with inversion, found



   Cartesian axes

     site n.     atom                  positions (alat units)
         1           Nb  tau(   1) = (   0.0000000   0.0000000   0.0000000  )

     number of k points=   145  Marzari-Vanderbilt smearing, width (Ry)=  0.0300

     Number of k-points >= 100: set verbosity='high' to print them.

     Dense  grid:    25267 G-vectors     FFT dimensions: (  40,  40,  40)

     Smooth grid:     8853 G-vectors     FFT dimensions: (  30,  30,  30)

     Estimated max dynamical RAM per process >     116.57 MB


     G-vector sticks info
     --------------------
     sticks:   dense  smooth     PW     G-vecs:    dense   smooth      PW
     Sum        1159     579    181                25267     8853    1553

     Using Slab Decomposition



     bravais-lattice index     =            3
     lattice parameter (alat)  =       6.1000  a.u.
     unit-cell volume          =     113.4905 (a.u.)^3
     number of atoms/cell      =            1
     number of atomic types    =            1
     number of electrons       =        13.00
     number of Kohn-Sham states=           11
     kinetic-energy cutoff     =      70.0000  Ry
     charge density cutoff     =     560.0000  Ry
     scf convergence threshold =      1.0E-10
     mixing beta               =       0.4000
     number of iterations used =            8  plain     mixing
     Exchange-correlation= SLA  PW   PBE  PBE
                           (   1   4   3   4   0   0   0)

     celldm(1)=   6.100000  celldm(2)=   0.000000  celldm(3)=   0.000000
     celldm(4)=   0.000000  celldm(5)=   0.000000  celldm(6)=   0.000000

     crystal axes: (cart. coord. in units of alat)
               a(1) = (   0.500000   0.500000   0.500000 )  
               a(2) = (  -0.500000   0.500000   0.500000 )  
               a(3) = (  -0.500000  -0.500000   0.500000 )  

     reciprocal axes: (cart. coord. in units 2 pi/alat)
               b(1) = (  1.000000  0.000000  1.000000 )  
               b(2) = ( -1.000000  1.000000  0.000000 )  
               b(3) = (  0.000000 -1.000000  1.000000 )  


     PseudoPot. # 1 for Nb read from file:
     ./pseudo/nb_pbe_v1.uspp.F.UPF
     MD5 check sum: 573aab8a2fa660278ed4a62cd769473f
     Pseudo is Ultrasoft + core correction, Zval = 13.0
     Generated by new atomic code, or converted to UPF format
     Using radial grid of  887 points,  6 beta functions with: 
                l(1) =   0
                l(2) =   0
                l(3) =   1
                l(4) =   1
                l(5) =   2
                l(6) =   2
     Q(r) pseudized with  6 coefficients,  rinner =    1.000   1.000   1.000
                                                       1.000   1.000

     atomic species   valence    mass     pseud
     G-vector sticks info
     --------------------
     sticks:   dense  smooth     PW     G-vecs:    dense   smooth      PW
     Sum        1159     579    181                25267     8853    1553

     Using Slab Decomposition



     bravais-lattice index     =            3
     lattice parameter (alat)  =       6.1000  a.u.
     unit-cell volume          =     113.4905 (a.u.)^3
     number of atoms/cell      =            1
     number of atomic types    =            1
     number of electrons       =        13.00
     number of Kohn-Sham states=           11
     kinetic-energy cutoff     =      70.0000  Ry
     charge density cutoff     =     560.0000  Ry
     scf convergence threshold =      1.0E-10
     mixing beta               =       0.4000
     number of iterations used =            8  plain     mixing
     Exchange-correlation= SLA  PW   PBE  PBE
                           (   1   4   3   4   0   0   0)

     celldm(1)=   6.100000  celldm(2)=   0.000000  celldm(3)=   0.000000
     celldm(4)=   0.000000  celldm(5)=   0.000000  celldm(6)=   0.000000

     crystal axes: (cart. coord. in units of alat)
               a(1) = (   0.500000   0.500000   0.500000 )  
               a(2) = (  -0.500000   0.500000   0.500000 )  
               a(3) = (  -0.500000  -0.500000   0.500000 )  

     reciprocal axes: (cart. coord. in units 2 pi/alat)
               b(1) = (  1.000000  0.000000  1.000000 )  
               b(2) = ( -1.000000  1.000000  0.000000 )  
               b(3) = (  0.000000 -1.000000  1.000000 )  


     PseudoPot. # 1 for Nb read from file:
     ./pseudo/nb_pbe_v1.uspp.F.UPF
     MD5 check sum: 573aab8a2fa660278ed4a62cd769473f
     Pseudo is Ultrasoft + core correction, Zval = 13.0
     Generated by new atomic code, or converted to UPF format
     Using radial grid of  887 points,  6 beta functions with: 
                l(1) =   0
                l(2) =   0
                l(3) =   1
                l(4) =   1
                l(5) =   2
                l(6) =   2
     Q(r) pseudized with  opotential
        Nb            13.00    92.90600     Nb( 1.00)

     48 Sym. Ops., with inversion, found



   Cartesian axes

     site n.     atom                  positions (alat units)
         1           Nb  tau(   1) = (   0.0000000   0.0000000   0.0000000  )

     number of k points=   145  Marzari-Vanderbilt smearing, width (Ry)=  0.0300

     Number of k-points >= 100: set verbosity='high' to print them.
6 coefficients,  rinner =    1.000   1.000   1.000
                                                       1.000   1.000

     Dense  grid:    25267 G-vectors     FFT dimensions: (  40,  40,  40)

     Smooth grid:     8853 G-vectors     FFT dimensions: (  30,  30,  30)

     Estimated max dynamical RAM per process >     116.57 MB

     atomic species   valence    mass     pseudopotential
        Nb            13.00    92.90600     Nb( 1.00)

     48 Sym. Ops., with inversion, found



   Cartesian axes

     site n.     atom                  positions (alat units)
         1           Nb  tau(   1) = (   0.0000000   0.0000000   0.0000000  )

     number of k points=   145  Marzari-Vanderbilt smearing, width (Ry)=  0.0300

     Number of k-points >= 100: set verbosity='high' to print them.

     Dense  grid:    25267 G-vectors     FFT dimensions: (  40,  40,  40)

     Smooth grid:     8853 G-vectors     FFT dimensions: (  30,  30,  30)

     Estimated max dynamical RAM per process >     116.57 MB


     G-vector sticks info
     --------------------
     sticks:   dense  smooth     PW     G-vecs:    dense   smooth      PW
     Sum        1159     579    181                25267     8853    1553

     Using Slab Decomposition



     bravais-lattice index     =            3
     lattice parameter (alat)  =       6.1000  a.u.
     unit-cell volume          =     113.4905 (a.u.)^3
     number of atoms/cell      =            1
     number of atomic types    =            1
     number of electrons       =        13.00
     number of Kohn-Sham states=           11
     kinetic-energy cutoff     =      70.0000  Ry
     charge density cutoff     =     560.0000  Ry
     scf convergence threshold =      1.0E-10
     mixing beta               =       0.4000
     number of iterations used =            8  plain     mixing
     Exchange-correlation= SLA  PW   PBE  PBE
                           (   1   4   3   4   0   0   0)

     celldm(1)=   6.100000  celldm(2)=   0.000000  celldm(3)=   0.000000
     celldm(4)=   0.000000  celldm(5)=   0.000000  celldm(6)=   0.000000

     crystal axes: (cart. coord. in units of alat)
               a(1) = (   0.500000   0.500000   0.500000 )  
               a(2) = (  -0.500000   0.500000   0.500000 )  
               a(3) = (  -0.500000  -0.500000   0.500000 )  

     reciprocal axes: (cart. coord. in units 2 pi/alat)
               b(1) = (  1.000000  0.000000  1.000000 )  
               b(2) = ( -1.000000  1.000000  0.000000 )  
               b(3) = (  0.000000 -1.000000  1.000000 )  


     PseudoPot. # 1 for Nb read from file:
     ./pseudo/nb_pbe_v1.uspp.F.UPF
     MD5 check sum: 573aab8a2fa660278ed4a62cd769473f
     Pseudo is Ultrasoft + core correction, Zval = 13.0
     Generated by new atomic code, or converted to UPF format
     Using radial grid of  887 points,  6 beta functions with: 
                l(1) =   0
                l(2) =   0
                l(3) =   1
                l(4) =   1
                l(5) =   2
                l(6) =   2
     Q(r) pseudized with  6 coefficients,  rinner =    1.000   1.000   1.000
                                                       1.000   1.000

     atomic species   valence    mass     pseudopotential
        Nb            13.00    92.90600     Nb( 1.00)

     48 Sym. Ops., with inversion, found



   Cartesian axes

     site n.     atom                  positions (alat units)
         1           Nb  tau(   1) = (   0.0000000   0.0000000   0.0000000  )

     number of k points=   145  Marzari-Vanderbilt smearing, width (Ry)=  0.0300

     Number of k-points >= 100: set verbosity='high' to print them.

     Dense  grid:    25267 G-vectors     FFT dimensions: (  40,  40,  40)

     Smooth grid:     8853 G-vectors     FFT dimensions: (  30,  30,  30)

     Estimated max dynamical RAM per process >     116.57 MB


     G-vector sticks info
     --------------------
     sticks:   dense  smooth     PW     G-vecs:    dense   smooth      PW
     Sum        1159     579    181                25267     8853    1553

     Using Slab Decomposition



     bravais-lattice index     =            3
     lattice parameter (alat)  =       6.1000  a.u.
     unit-cell volume          =     113.4905 (a.u.)^3
     number of atoms/cell      =            1
     number of atomic types    =            1
     number of electrons       =        13.00
     number of Kohn-Sham states=           11
     kinetic-energy cutoff     =      70.0000  Ry
     charge density cutoff     =     560.0000  Ry
     scf convergence threshold =      1.0E-10
     mixing beta               =       0.4000
     number of iterations used =            8  plain     mixing
     Exchange-correlation= SLA  PW   PBE  PBE
                           (   1   4   3   4   0   0   0)

     celldm(1)=   6.100000  celldm(2)=   0.000000  celldm(3)=   0.000000
     celldm(4)=   0.000000  celldm(5)=   0.000000  celldm(6)=   0.000000

     crystal axes: (cart. coord. in units of alat)
               a(1) = (   0.500000   0.500000   0.500000 )  
               a(2) = (  -0.500000   0.500000   0.500000 )  
               a(3) = (  -0.500000  -0.500000   0.500000 )  

     reciprocal axes: (cart. coord. in units 2 pi/alat)
               b(1) = (  1.000000  0.000000  1.000000 )  
               b(2) = ( -1.000000  1.000000  0.000000 )  
               b(3) = (  0.000000 -1.000000  1.000000 )  


     PseudoPot. # 1 for Nb read from file:
     ./pseudo/nb_pbe_v1.uspp.F.UPF
     MD5 check sum: 573aab8a2fa660278ed4a62cd769473f
     Pseudo is Ultrasoft + core correction, Zval = 13.0
     Generated by new atomic code, or converted to UPF format
     Using radial grid of  887 points,  6 beta functions with: 
                l(1) =   0
                l(2) =   0
                l(3) =   1
                l(4) =   1
                l(5) =   2
                l(6) =   2
     Q(r) pseudized with  6 coefficients,  rinner =    1.000   1.000   1.000
                                                       1.000   1.000

     atomic species   valence    mass     pseudopotential
        Nb            13.00    92.90600     Nb( 1.00)

     48 Sym. Ops., with inversion, found



   Cartesian axes

     site n.     atom                  positions (alat units)
         1           Nb  tau(   1) = (   0.0000000   0.0000000   0.0000000  )

     number of k points=   145  Marzari-Vanderbilt smearing, width (Ry)=  0.0300

     Number of k-points >= 100: set verbosity='high' to print them.

     Dense  grid:    25267 G-vectors     FFT dimensions: (  40,  40,  40)

     Smooth grid:     8853 G-vectors     FFT dimensions: (  30,  30,  30)

     Estimated max dynamical RAM per process >     116.57 MB

     Initial potential from superposition of free atoms

     starting charge      12.9973, renormalised to      13.0000

     Initial potential from superposition of free atoms

     starting charge      12.9973, renormalised to      13.0000

     Initial potential from superposition of free atoms

     starting charge      12.9973, renormalised to      13.0000

     Initial potential from superposition of free atoms

     starting charge      12.9973, renormalised to      13.0000

     Initial potential from superposition of free atoms

     starting charge      12.9973, renormalised to      13.0000

     Initial potential from superposition of free atoms

     starting charge      12.9973, renormalised to      13.0000
     Starting wfcs are   13 randomized atomic wfcs
     Starting wfcs are   13 randomized atomic wfcs
     Starting wfcs are   13 randomized atomic wfcs
     Starting wfcs are   13 randomized atomic wfcs
     Starting wfcs are   13 randomized atomic wfcs
     Starting wfcs are   13 randomized atomic wfcs

     total cpu time spent up to now is        1.1 secs

     Self-consistent Calculation

     iteration #  1     ecut=    70.00 Ry     beta= 0.40
     Davidson diagonalization with overlap

     total cpu time spent up to now is        1.1 secs

     Self-consistent Calculation

     iteration #  1     ecut=    70.00 Ry     beta= 0.40
     Davidson diagonalization with overlap

     total cpu time spent up to now is        1.1 secs

     total cpu time spent up to now is        1.1 secs

     Self-consistent Calculation

     iteration #  1     ecut=    70.00 Ry     beta= 0.40

     Self-consistent Calculation

     iteration #  1     ecut=    70.00 Ry     beta= 0.40
     Davidson diagonalization with overlap
     Davidson diagonalization with overlap

     total cpu time spent up to now is        1.1 secs

     Self-consistent Calculation

     iteration #  1     ecut=    70.00 Ry     beta= 0.40
     Davidson diagonalization with overlap

     total cpu time spent up to now is        1.2 secs

     Self-consistent Calculation

     iteration #  1     ecut=    70.00 Ry     beta= 0.40
     Davidson diagonalization with overlap
     ethr =  1.00E-02,  avg # of iterations =  3.7
     ethr =  1.00E-02,  avg # of iterations =  3.7
     ethr =  1.00E-02,  avg # of iterations =  3.7
     ethr =  1.00E-02,  avg # of iterations =  3.7
     ethr =  1.00E-02,  avg # of iterations =  3.7
     ethr =  1.00E-02,  avg # of iterations =  3.7

     Threshold (ethr) on eigenvalues was too large:
     Diagonalizing with lowered threshold

     Davidson diagonalization with overlap

     Threshold (ethr) on eigenvalues was too large:
     Diagonalizing with lowered threshold

     Davidson diagonalization with overlap

     Threshold (ethr) on eigenvalues was too large:
     Diagonalizing with lowered threshold

     Davidson diagonalization with overlap

     Threshold (ethr) on eigenvalues was too large:
     Diagonalizing with lowered threshold

     Davidson diagonalization with overlap

     Threshold (ethr) on eigenvalues was too large:
     Diagonalizing with lowered threshold

     Davidson diagonalization with overlap

     Threshold (ethr) on eigenvalues was too large:
     Diagonalizing with lowered threshold

     Davidson diagonalization with overlap
     ethr =  5.80E-04,  avg # of iterations =  1.3
     ethr =  5.80E-04,  avg # of iterations =  1.3
     ethr =  5.80E-04,  avg # of iterations =  1.3
     ethr =  5.80E-04,  avg # of iterations =  1.3
     ethr =  5.80E-04,  avg # of iterations =  1.3
     ethr =  5.80E-04,  avg # of iterations =  1.3

     total cpu time spent up to now is        5.0 secs

     total energy              =    -117.92523175 Ry
     estimated scf accuracy    <       0.07703812 Ry

     iteration #  2     ecut=    70.00 Ry     beta= 0.40
     Davidson diagonalization with overlap

     total cpu time spent up to now is        5.0 secs

     total energy              =    -117.92523175 Ry
     estimated scf accuracy    <       0.07703812 Ry

     iteration #  2     ecut=    70.00 Ry     beta= 0.40
     Davidson diagonalization with overlap

     total cpu time spent up to now is        5.0 secs

     total energy              =    -117.92523175 Ry
     estimated scf accuracy    <       0.07703812 Ry

     iteration #  2     ecut=    70.00 Ry     beta= 0.40
     Davidson diagonalization with overlap

     total cpu time spent up to now is        5.0 secs

     total energy              =    -117.92523175 Ry
     estimated scf accuracy    <       0.07703812 Ry

     iteration #  2     ecut=    70.00 Ry     beta= 0.40
     Davidson diagonalization with overlap

     total cpu time spent up to now is        5.0 secs

     total energy              =    -117.92523175 Ry
     estimated scf accuracy    <       0.07703812 Ry

     iteration #  2     ecut=    70.00 Ry     beta= 0.40
     Davidson diagonalization with overlap

     total cpu time spent up to now is        5.2 secs

     total energy              =    -117.92523175 Ry
     estimated scf accuracy    <       0.07703812 Ry

     iteration #  2     ecut=    70.00 Ry     beta= 0.40
     Davidson diagonalization with overlap
     ethr =  5.93E-04,  avg # of iterations =  1.6
     ethr =  5.93E-04,  avg # of iterations =  1.6
     ethr =  5.93E-04,  avg # of iterations =  1.6
     ethr =  5.93E-04,  avg # of iterations =  1.6
     ethr =  5.93E-04,  avg # of iterations =  1.6
     ethr =  5.93E-04,  avg # of iterations =  1.6

     total cpu time spent up to now is        6.8 secs

     total energy              =    -117.92708754 Ry
     estimated scf accuracy    <       0.01071667 Ry

     iteration #  3     ecut=    70.00 Ry     beta= 0.40
     Davidson diagonalization with overlap

     total cpu time spent up to now is        6.8 secs

     total energy              =    -117.92708754 Ry
     estimated scf accuracy    <       0.01071667 Ry

     iteration #  3     ecut=    70.00 Ry     beta= 0.40
     Davidson diagonalization with overlap

     total cpu time spent up to now is        6.8 secs

     total energy              =    -117.92708754 Ry
     estimated scf accuracy    <       0.01071667 Ry

     iteration #  3     ecut=    70.00 Ry     beta= 0.40
     Davidson diagonalization with overlap

     total cpu time spent up to now is        6.8 secs

     total energy              =    -117.92708754 Ry
     estimated scf accuracy    <       0.01071667 Ry

     iteration #  3     ecut=    70.00 Ry     beta= 0.40
     Davidson diagonalization with overlap

     total cpu time spent up to now is        6.9 secs

     total energy              =    -117.92708754 Ry
     estimated scf accuracy    <       0.01071667 Ry

     iteration #  3     ecut=    70.00 Ry     beta= 0.40
     Davidson diagonalization with overlap

     total cpu time spent up to now is        7.0 secs

     total energy              =    -117.92708754 Ry
     estimated scf accuracy    <       0.01071667 Ry

     iteration #  3     ecut=    70.00 Ry     beta= 0.40
     Davidson diagonalization with overlap
     ethr =  8.24E-05,  avg # of iterations =  2.6
     ethr =  8.24E-05,  avg # of iterations =  2.6
     ethr =  8.24E-05,  avg # of iterations =  2.6
     ethr =  8.24E-05,  avg # of iterations =  2.6
     ethr =  8.24E-05,  avg # of iterations =  2.6
     ethr =  8.24E-05,  avg # of iterations =  2.6

     total cpu time spent up to now is        8.8 secs

     total energy              =    -117.92893581 Ry
     estimated scf accuracy    <       0.00056231 Ry

     iteration #  4     ecut=    70.00 Ry     beta= 0.40
     Davidson diagonalization with overlap

     total cpu time spent up to now is        8.9 secs

     total energy              =    -117.92893581 Ry
     estimated scf accuracy    <       0.00056231 Ry

     iteration #  4     ecut=    70.00 Ry     beta= 0.40
     Davidson diagonalization with overlap

     total cpu time spent up to now is        8.9 secs

     total energy              =    -117.92893581 Ry
     estimated scf accuracy    <       0.00056231 Ry

     iteration #  4     ecut=    70.00 Ry     beta= 0.40
     Davidson diagonalization with overlap

     total cpu time spent up to now is        9.0 secs

     total energy              =    -117.92893581 Ry
     estimated scf accuracy    <       0.00056231 Ry

     iteration #  4     ecut=    70.00 Ry     beta= 0.40
     Davidson diagonalization with overlap

     total cpu time spent up to now is        9.0 secs

     total energy              =    -117.92893581 Ry
     estimated scf accuracy    <       0.00056231 Ry

     iteration #  4     ecut=    70.00 Ry     beta= 0.40
     Davidson diagonalization with overlap

     total cpu time spent up to now is        9.1 secs

     total energy              =    -117.92893581 Ry
     estimated scf accuracy    <       0.00056231 Ry

     iteration #  4     ecut=    70.00 Ry     beta= 0.40
     Davidson diagonalization with overlap
     ethr =  4.33E-06,  avg # of iterations =  3.4
     ethr =  4.33E-06,  avg # of iterations =  3.4
     ethr =  4.33E-06,  avg # of iterations =  3.4
     ethr =  4.33E-06,  avg # of iterations =  3.4
     ethr =  4.33E-06,  avg # of iterations =  3.4
     ethr =  4.33E-06,  avg # of iterations =  3.4

     total cpu time spent up to now is       10.9 secs

     total energy              =    -117.92898136 Ry
     estimated scf accuracy    <       0.00005936 Ry

     iteration #  5     ecut=    70.00 Ry     beta= 0.40
     Davidson diagonalization with overlap

     total cpu time spent up to now is       11.0 secs

     total energy              =    -117.92898136 Ry
     estimated scf accuracy    <       0.00005936 Ry

     iteration #  5     ecut=    70.00 Ry     beta= 0.40
     Davidson diagonalization with overlap

     total cpu time spent up to now is       11.0 secs

     total energy              =    -117.92898136 Ry
     estimated scf accuracy    <       0.00005936 Ry

     iteration #  5     ecut=    70.00 Ry     beta= 0.40
     Davidson diagonalization with overlap

     total cpu time spent up to now is       11.1 secs

     total energy              =    -117.92898136 Ry
     estimated scf accuracy    <       0.00005936 Ry

     iteration #  5     ecut=    70.00 Ry     beta= 0.40
     Davidson diagonalization with overlap

     total cpu time spent up to now is       11.1 secs

     total energy              =    -117.92898136 Ry
     estimated scf accuracy    <       0.00005936 Ry

     iteration #  5     ecut=    70.00 Ry     beta= 0.40
     Davidson diagonalization with overlap

     total cpu time spent up to now is       11.2 secs

     total energy              =    -117.92898136 Ry
     estimated scf accuracy    <       0.00005936 Ry

     iteration #  5     ecut=    70.00 Ry     beta= 0.40
     Davidson diagonalization with overlap
     ethr =  4.57E-07,  avg # of iterations =  2.1
     ethr =  4.57E-07,  avg # of iterations =  2.1
     ethr =  4.57E-07,  avg # of iterations =  2.1
     ethr =  4.57E-07,  avg # of iterations =  2.1
     ethr =  4.57E-07,  avg # of iterations =  2.1

     total cpu time spent up to now is       13.0 secs

     total energy              =    -117.92899416 Ry
     estimated scf accuracy    <       0.00000667 Ry

     iteration #  6     ecut=    70.00 Ry     beta= 0.40
     Davidson diagonalization with overlap

     total cpu time spent up to now is       13.0 secs

     total energy              =    -117.92899416 Ry
     estimated scf accuracy    <       0.00000667 Ry

     iteration #  6     ecut=    70.00 Ry     beta= 0.40
     Davidson diagonalization with overlap
     ethr =  4.57E-07,  avg # of iterations =  2.1

     total cpu time spent up to now is       13.2 secs

     total energy              =    -117.92899416 Ry
     estimated scf accuracy    <       0.00000667 Ry

     iteration #  6     ecut=    70.00 Ry     beta= 0.40
     Davidson diagonalization with overlap

     total cpu time spent up to now is       13.2 secs

     total energy              =    -117.92899416 Ry
     estimated scf accuracy    <       0.00000667 Ry

     iteration #  6     ecut=    70.00 Ry     beta= 0.40
     Davidson diagonalization with overlap

     total cpu time spent up to now is       13.2 secs

     total energy              =    -117.92899416 Ry
     estimated scf accuracy    <       0.00000667 Ry

     iteration #  6     ecut=    70.00 Ry     beta= 0.40
     Davidson diagonalization with overlap

     total cpu time spent up to now is       13.4 secs

     total energy              =    -117.92899416 Ry
     estimated scf accuracy    <       0.00000667 Ry

     iteration #  6     ecut=    70.00 Ry     beta= 0.40
     Davidson diagonalization with overlap
     ethr =  5.13E-08,  avg # of iterations =  1.8
     ethr =  5.13E-08,  avg # of iterations =  1.8
     ethr =  5.13E-08,  avg # of iterations =  1.8
     ethr =  5.13E-08,  avg # of iterations =  1.8
     ethr =  5.13E-08,  avg # of iterations =  1.8

     total cpu time spent up to now is       14.8 secs

     total energy              =    -117.92899488 Ry
     estimated scf accuracy    <       0.00000003 Ry

     iteration #  7     ecut=    70.00 Ry     beta= 0.40
     Davidson diagonalization with overlap
     ethr =  5.13E-08,  avg # of iterations =  1.8

     total cpu time spent up to now is       14.9 secs

     total energy              =    -117.92899488 Ry
     estimated scf accuracy    <       0.00000003 Ry

     iteration #  7     ecut=    70.00 Ry     beta= 0.40
     Davidson diagonalization with overlap

     total cpu time spent up to now is       15.0 secs

     total energy              =    -117.92899488 Ry
     estimated scf accuracy    <       0.00000003 Ry

     iteration #  7     ecut=    70.00 Ry     beta= 0.40
     Davidson diagonalization with overlap

     total cpu time spent up to now is       15.0 secs

     total energy              =    -117.92899488 Ry
     estimated scf accuracy    <       0.00000003 Ry

     iteration #  7     ecut=    70.00 Ry     beta= 0.40
     Davidson diagonalization with overlap

     total cpu time spent up to now is       15.1 secs

     total energy              =    -117.92899488 Ry
     estimated scf accuracy    <       0.00000003 Ry

     iteration #  7     ecut=    70.00 Ry     beta= 0.40
     Davidson diagonalization with overlap

     total cpu time spent up to now is       15.3 secs

     total energy              =    -117.92899488 Ry
     estimated scf accuracy    <       0.00000003 Ry

     iteration #  7     ecut=    70.00 Ry     beta= 0.40
     Davidson diagonalization with overlap
     ethr =  1.96E-10,  avg # of iterations =  3.0
     ethr =  1.96E-10,  avg # of iterations =  3.0
     ethr =  1.96E-10,  avg # of iterations =  3.0
     ethr =  1.96E-10,  avg # of iterations =  3.0
     ethr =  1.96E-10,  avg # of iterations =  3.0

     total cpu time spent up to now is       17.0 secs

     total energy              =    -117.92899490 Ry
     estimated scf accuracy    <       0.00000002 Ry

     iteration #  8     ecut=    70.00 Ry     beta= 0.40
     Davidson diagonalization with overlap

     total cpu time spent up to now is       17.1 secs

     total energy              =    -117.92899490 Ry
     estimated scf accuracy    <       0.00000002 Ry

     iteration #  8     ecut=    70.00 Ry     beta= 0.40
     Davidson diagonalization with overlap
     ethr =  1.96E-10,  avg # of iterations =  3.0

     total cpu time spent up to now is       17.3 secs

     total energy              =    -117.92899490 Ry
     estimated scf accuracy    <       0.00000002 Ry

     iteration #  8     ecut=    70.00 Ry     beta= 0.40
     Davidson diagonalization with overlap

     total cpu time spent up to now is       17.3 secs

     total energy              =    -117.92899490 Ry
     estimated scf accuracy    <       0.00000002 Ry

     iteration #  8     ecut=    70.00 Ry     beta= 0.40
     Davidson diagonalization with overlap

     total cpu time spent up to now is       17.4 secs

     total energy              =    -117.92899490 Ry
     estimated scf accuracy    <       0.00000002 Ry

     iteration #  8     ecut=    70.00 Ry     beta= 0.40
     Davidson diagonalization with overlap

     total cpu time spent up to now is       17.6 secs

     total energy              =    -117.92899490 Ry
     estimated scf accuracy    <       0.00000002 Ry

     iteration #  8     ecut=    70.00 Ry     beta= 0.40
     Davidson diagonalization with overlap
     ethr =  1.36E-10,  avg # of iterations =  1.0
     ethr =  1.36E-10,  avg # of iterations =  1.0
     ethr =  1.36E-10,  avg # of iterations =  1.0
     ethr =  1.36E-10,  avg # of iterations =  1.0
     ethr =  1.36E-10,  avg # of iterations =  1.0

     total cpu time spent up to now is       18.6 secs

     total energy              =    -117.92899490 Ry
     estimated scf accuracy    <          5.0E-09 Ry

     iteration #  9     ecut=    70.00 Ry     beta= 0.40
     Davidson diagonalization with overlap

     total cpu time spent up to now is       18.9 secs

     total energy              =    -117.92899490 Ry
     estimated scf accuracy    <          5.0E-09 Ry

     iteration #  9     ecut=    70.00 Ry     beta= 0.40
     Davidson diagonalization with overlap

     total cpu time spent up to now is       18.9 secs

     total energy              =    -117.92899490 Ry
     estimated scf accuracy    <          5.0E-09 Ry

     iteration #  9     ecut=    70.00 Ry     beta= 0.40
     Davidson diagonalization with overlap

     total cpu time spent up to now is       19.0 secs

     total energy              =    -117.92899490 Ry
     estimated scf accuracy    <          5.0E-09 Ry

     iteration #  9     ecut=    70.00 Ry     beta= 0.40

     total cpu time spent up to now is       19.0 secs

     total energy              =    -117.92899490 Ry
     estimated scf accuracy    <          5.0E-09 Ry

     iteration #  9     ecut=    70.00 Ry     beta= 0.40
     Davidson diagonalization with overlap
     Davidson diagonalization with overlap
     ethr =  1.36E-10,  avg # of iterations =  1.0

     total cpu time spent up to now is       19.4 secs

     total energy              =    -117.92899490 Ry
     estimated scf accuracy    <          5.0E-09 Ry

     iteration #  9     ecut=    70.00 Ry     beta= 0.40
     Davidson diagonalization with overlap
     ethr =  3.86E-11,  avg # of iterations =  2.0
     ethr =  3.86E-11,  avg # of iterations =  2.0
     ethr =  3.86E-11,  avg # of iterations =  2.0

     total cpu time spent up to now is       20.5 secs

     End of self-consistent calculation

     Number of k-points >= 100: set verbosity='high' to print the bands.

     the Fermi energy is    19.4704 ev

!    total energy              =    -117.92899490 Ry
     estimated scf accuracy    <          1.7E-11 Ry
     smearing contrib. (-TS)   =      -0.00007382 Ry
     internal energy E=F+TS    =    -117.92892108 Ry

     The total energy is F=E-TS. E is the sum of the following terms:
     one-electron contribution =     -12.67858602 Ry
     hartree contribution      =      14.10143585 Ry
     xc contribution           =     -18.52710649 Ry
     ewald contribution        =    -100.82466442 Ry

     convergence has been achieved in   9 iterations

     Writing all to output data dir ./tmp/Nb_eos_6.10.save/
     ethr =  3.86E-11,  avg # of iterations =  2.0

     init_run     :      1.00s CPU      1.07s WALL (       1 calls)
     electrons    :     18.61s CPU     19.39s WALL (       1 calls)

     Called by init_run:
     wfcinit      :      0.79s CPU      0.84s WALL (       1 calls)
     potinit      :      0.02s CPU      0.02s WALL (       1 calls)
     hinit0       :      0.16s CPU      0.16s WALL (       1 calls)

     Called by electrons:
     c_bands      :     15.04s CPU     15.63s WALL (      10 calls)
     sum_band     :      3.26s CPU      3.39s WALL (      10 calls)
     v_of_rho     :      0.12s CPU      0.13s WALL (      10 calls)
     newd         :      0.19s CPU      0.24s WALL (      10 calls)
     mix_rho      :      0.01s CPU      0.01s WALL (      10 calls)

     Called by c_bands:
     init_us_2    :      0.38s CPU      0.39s WALL (    3045 calls)
     init_us_2:cp :      0.38s CPU      0.39s WALL (    3045 calls)
     cegterg      :     14.45s CPU     15.02s WALL (    1450 calls)

     Called by *egterg:
     cdiaghg      :      0.30s CPU      0.31s WALL (    4568 calls)
     h_psi        :     13.31s CPU     13.78s WALL (    4858 calls)
     s_psi        :      0.25s CPU      0.26s WALL (    4858 calls)
     g_psi        :      0.04s CPU      0.04s WALL (    3263 calls)

     Called by h_psi:
     h_psi:calbec :      0.28s CPU      0.29s WALL (    4858 calls)
     vloc_psi     :     12.75s CPU     13.19s WALL (    4858 calls)
     add_vuspsi   :      0.25s CPU      0.26s WALL (    4858 calls)

     General routines
     calbec       :      0.39s CPU      0.40s WALL (    6308 calls)
     fft          :      0.06s CPU      0.07s WALL (     129 calls)
     ffts         :      0.01s CPU      0.01s WALL (      20 calls)
     fftw         :     13.33s CPU     13.76s WALL (   93800 calls)
     interpolate  :      0.01s CPU      0.01s WALL (      10 calls)


     PWSCF        :     19.67s CPU     20.62s WALL


   This run was terminated on:  23:14:50   6Mar2026            

=------------------------------------------------------------------------------=
   JOB DONE.
=------------------------------------------------------------------------------=
Note: The following floating-point exceptions are signalling: IEEE_INVALID_FLAG IEEE_DIVIDE_BY_ZERO IEEE_UNDERFLOW_FLAG
     ethr =  3.86E-11,  avg # of iterations =  2.0

     total cpu time spent up to now is       20.7 secs

     End of self-consistent calculation

     Number of k-points >= 100: set verbosity='high' to print the bands.

     the Fermi energy is    19.4704 ev

!    total energy              =    -117.92899490 Ry
     estimated scf accuracy    <          1.7E-11 Ry
     smearing contrib. (-TS)   =      -0.00007382 Ry
     internal energy E=F+TS    =    -117.92892108 Ry

     The total energy is F=E-TS. E is the sum of the following terms:
     one-electron contribution =     -12.67858602 Ry
     hartree contribution      =      14.10143585 Ry
     xc contribution           =     -18.52710649 Ry
     ewald contribution        =    -100.82466442 Ry

     convergence has been achieved in   9 iterations

     Writing all to output data dir ./tmp/Nb_eos_6.10.save/

     init_run     :      1.01s CPU      1.07s WALL (       1 calls)
     electrons    :     18.78s CPU     19.61s WALL (       1 calls)

     Called by init_run:
     wfcinit      :      0.80s CPU      0.84s WALL (       1 calls)
     potinit      :      0.02s CPU      0.02s WALL (       1 calls)
     hinit0       :      0.16s CPU      0.16s WALL (       1 calls)

     Called by electrons:
     c_bands      :     15.14s CPU     15.76s WALL (      10 calls)
     sum_band     :      3.34s CPU      3.50s WALL (      10 calls)
     v_of_rho     :      0.12s CPU      0.13s WALL (      10 calls)
     newd         :      0.19s CPU      0.23s WALL (      10 calls)
     mix_rho      :      0.01s CPU      0.01s WALL (      10 calls)

     Called by c_bands:
     init_us_2    :      0.39s CPU      0.40s WALL (    3045 calls)
     init_us_2:cp :      0.39s CPU      0.40s WALL (    3045 calls)
     cegterg      :     14.55s CPU     15.14s WALL (    1450 calls)

     Called by *egterg:
     cdiaghg      :      0.30s CPU      0.31s WALL (    4568 calls)
     h_psi        :     13.42s CPU     13.93s WALL (    4858 calls)
     s_psi        :      0.25s CPU      0.26s WALL (    4858 calls)
     g_psi        :      0.04s CPU      0.04s WALL (    3263 calls)

     Called by h_psi:
     h_psi:calbec :      0.28s CPU      0.30s WALL (    4858 calls)
     vloc_psi     :     12.86s CPU     13.33s WALL (    4858 calls)
     add_vuspsi   :      0.25s CPU      0.26s WALL (    4858 calls)

     General routines
     calbec       :      0.39s CPU      0.41s WALL (    6308 calls)
     fft          :      0.06s CPU      0.06s WALL (     129 calls)
     ffts         :      0.01s CPU      0.01s WALL (      20 calls)
     fftw         :     13.48s CPU     13.96s WALL (   93800 calls)
     interpolate  :      0.01s CPU      0.01s WALL (      10 calls)


     PWSCF        :     19.86s CPU     20.78s WALL


   This run was terminated on:  23:14:50   6Mar2026            

=------------------------------------------------------------------------------=
   JOB DONE.
=------------------------------------------------------------------------------=
Note: The following floating-point exceptions are signalling: IEEE_INVALID_FLAG IEEE_DIVIDE_BY_ZERO IEEE_UNDERFLOW_FLAG

     total cpu time spent up to now is       20.8 secs

     End of self-consistent calculation

     Number of k-points >= 100: set verbosity='high' to print the bands.

     the Fermi energy is    19.4704 ev

!    total energy              =    -117.92899490 Ry
     estimated scf accuracy    <          1.7E-11 Ry
     smearing contrib. (-TS)   =      -0.00007382 Ry
     internal energy E=F+TS    =    -117.92892108 Ry

     The total energy is F=E-TS. E is the sum of the following terms:
     one-electron contribution =     -12.67858602 Ry
     hartree contribution      =      14.10143585 Ry
     xc contribution           =     -18.52710649 Ry
     ewald contribution        =    -100.82466442 Ry

     convergence has been achieved in   9 iterations

     Writing all to output data dir ./tmp/Nb_eos_6.10.save/

     init_run     :      1.02s CPU      1.09s WALL (       1 calls)
     electrons    :     18.80s CPU     19.69s WALL (       1 calls)

     Called by init_run:
     wfcinit      :      0.81s CPU      0.86s WALL (       1 calls)
     potinit      :      0.02s CPU      0.02s WALL (       1 calls)
     hinit0       :      0.16s CPU      0.16s WALL (       1 calls)

     Called by electrons:
     c_bands      :     15.14s CPU     15.79s WALL (      10 calls)
     sum_band     :      3.36s CPU      3.55s WALL (      10 calls)
     v_of_rho     :      0.12s CPU      0.13s WALL (      10 calls)
     newd         :      0.19s CPU      0.23s WALL (      10 calls)
     mix_rho      :      0.01s CPU      0.01s WALL (      10 calls)

     Called by c_bands:
     init_us_2    :      0.39s CPU      0.41s WALL (    3045 calls)
     init_us_2:cp :      0.39s CPU      0.40s WALL (    3045 calls)
     cegterg      :     14.56s CPU     15.18s WALL (    1450 calls)

     Called by *egterg:
     cdiaghg      :      0.30s CPU      0.31s WALL (    4568 calls)
     h_psi        :     13.43s CPU     13.98s WALL (    4858 calls)
     s_psi        :      0.25s CPU      0.26s WALL (    4858 calls)
     g_psi        :      0.04s CPU      0.04s WALL (    3263 calls)

     Called by h_psi:
     h_psi:calbec :      0.28s CPU      0.30s WALL (    4858 calls)
     vloc_psi     :     12.86s CPU     13.38s WALL (    4858 calls)
     add_vuspsi   :      0.25s CPU      0.26s WALL (    4858 calls)

     General routines
     calbec       :      0.39s CPU      0.42s WALL (    6308 calls)
     fft          :      0.06s CPU      0.06s WALL (     129 calls)
     ffts         :      0.01s CPU      0.01s WALL (      20 calls)
     fftw         :     13.50s CPU     14.05s WALL (   93800 calls)
     interpolate  :      0.01s CPU      0.01s WALL (      10 calls)


     PWSCF        :     19.88s CPU     20.87s WALL


   This run was terminated on:  23:14:50   6Mar2026            

=------------------------------------------------------------------------------=
   JOB DONE.
=------------------------------------------------------------------------------=
Note: The following floating-point exceptions are signalling: IEEE_INVALID_FLAG IEEE_DIVIDE_BY_ZERO IEEE_UNDERFLOW_FLAG
     ethr =  3.86E-11,  avg # of iterations =  2.0

     total cpu time spent up to now is       21.0 secs

     End of self-consistent calculation

     Number of k-points >= 100: set verbosity='high' to print the bands.

     the Fermi energy is    19.4704 ev

!    total energy              =    -117.92899490 Ry
     estimated scf accuracy    <          1.7E-11 Ry
     smearing contrib. (-TS)   =      -0.00007382 Ry
     internal energy E=F+TS    =    -117.92892108 Ry

     The total energy is F=E-TS. E is the sum of the following terms:
     one-electron contribution =     -12.67858602 Ry
     hartree contribution      =      14.10143585 Ry
     xc contribution           =     -18.52710649 Ry
     ewald contribution        =    -100.82466442 Ry

     convergence has been achieved in   9 iterations

     Writing all to output data dir ./tmp/Nb_eos_6.10.save/

     init_run     :      1.01s CPU      1.10s WALL (       1 calls)
     electrons    :     18.92s CPU     19.80s WALL (       1 calls)

     Called by init_run:
     wfcinit      :      0.80s CPU      0.88s WALL (       1 calls)
     potinit      :      0.02s CPU      0.02s WALL (       1 calls)
     hinit0       :      0.16s CPU      0.16s WALL (       1 calls)

     Called by electrons:
     c_bands      :     15.28s CPU     15.98s WALL (      10 calls)
     sum_band     :      3.33s CPU      3.46s WALL (      10 calls)
     v_of_rho     :      0.12s CPU      0.13s WALL (      10 calls)
     newd         :      0.19s CPU      0.23s WALL (      10 calls)
     mix_rho      :      0.01s CPU      0.01s WALL (      10 calls)

     Called by c_bands:
     init_us_2    :      0.39s CPU      0.41s WALL (    3045 calls)
     init_us_2:cp :      0.39s CPU      0.41s WALL (    3045 calls)
     cegterg      :     14.68s CPU     15.35s WALL (    1450 calls)

     Called by *egterg:
     cdiaghg      :      0.31s CPU      0.32s WALL (    4568 calls)
     h_psi        :     13.52s CPU     14.12s WALL (    4858 calls)
     s_psi        :      0.25s CPU      0.26s WALL (    4858 calls)
     g_psi        :      0.04s CPU      0.04s WALL (    3263 calls)

     Called by h_psi:
     h_psi:calbec :      0.29s CPU      0.30s WALL (    4858 calls)
     vloc_psi     :     12.95s CPU     13.51s WALL (    4858 calls)
     add_vuspsi   :      0.25s CPU      0.27s WALL (    4858 calls)

     General routines
     calbec       :      0.39s CPU      0.41s WALL (    6308 calls)
     fft          :      0.06s CPU      0.06s WALL (     129 calls)
     ffts         :      0.01s CPU      0.01s WALL (      20 calls)
     fftw         :     13.56s CPU     14.09s WALL (   93800 calls)
     interpolate  :      0.01s CPU      0.01s WALL (      10 calls)


     PWSCF        :     19.99s CPU     21.01s WALL


   This run was terminated on:  23:14:51   6Mar2026            

=------------------------------------------------------------------------------=
   JOB DONE.
=------------------------------------------------------------------------------=
Note: The following floating-point exceptions are signalling: IEEE_INVALID_FLAG IEEE_DIVIDE_BY_ZERO IEEE_UNDERFLOW_FLAG

     total cpu time spent up to now is       21.0 secs

     End of self-consistent calculation

     Number of k-points >= 100: set verbosity='high' to print the bands.

     the Fermi energy is    19.4704 ev

!    total energy              =    -117.92899490 Ry
     estimated scf accuracy    <          1.7E-11 Ry
     smearing contrib. (-TS)   =      -0.00007382 Ry
     internal energy E=F+TS    =    -117.92892108 Ry

     The total energy is F=E-TS. E is the sum of the following terms:
     one-electron contribution =     -12.67858602 Ry
     hartree contribution      =      14.10143585 Ry
     xc contribution           =     -18.52710649 Ry
     ewald contribution        =    -100.82466442 Ry

     convergence has been achieved in   9 iterations

     Writing all to output data dir ./tmp/Nb_eos_6.10.save/

     init_run     :      1.01s CPU      1.07s WALL (       1 calls)
     electrons    :     19.10s CPU     19.90s WALL (       1 calls)

     Called by init_run:
     wfcinit      :      0.79s CPU      0.83s WALL (       1 calls)
     potinit      :      0.02s CPU      0.02s WALL (       1 calls)
     hinit0       :      0.16s CPU      0.17s WALL (       1 calls)

     Called by electrons:
     c_bands      :     15.41s CPU     16.03s WALL (      10 calls)
     sum_band     :      3.38s CPU      3.52s WALL (      10 calls)
     v_of_rho     :      0.13s CPU      0.13s WALL (      10 calls)
     newd         :      0.19s CPU      0.24s WALL (      10 calls)
     mix_rho      :      0.01s CPU      0.01s WALL (      10 calls)

     Called by c_bands:
     init_us_2    :      0.40s CPU      0.41s WALL (    3045 calls)
     init_us_2:cp :      0.40s CPU      0.41s WALL (    3045 calls)
     cegterg      :     14.81s CPU     15.40s WALL (    1450 calls)

     Called by *egterg:
     cdiaghg      :      0.31s CPU      0.32s WALL (    4568 calls)
     h_psi        :     13.63s CPU     14.14s WALL (    4858 calls)
     s_psi        :      0.25s CPU      0.26s WALL (    4858 calls)
     g_psi        :      0.04s CPU      0.04s WALL (    3263 calls)

     Called by h_psi:
     h_psi:calbec :      0.29s CPU      0.30s WALL (    4858 calls)
     vloc_psi     :     13.06s CPU     13.53s WALL (    4858 calls)
     add_vuspsi   :      0.26s CPU      0.27s WALL (    4858 calls)

     General routines
     calbec       :      0.40s CPU      0.41s WALL (    6308 calls)
     fft          :      0.06s CPU      0.06s WALL (     129 calls)
     ffts         :      0.01s CPU      0.01s WALL (      20 calls)
     fftw         :     13.67s CPU     14.14s WALL (   93800 calls)
     interpolate  :      0.01s CPU      0.01s WALL (      10 calls)


     PWSCF        :     20.17s CPU     21.10s WALL


   This run was terminated on:  23:14:51   6Mar2026            

=------------------------------------------------------------------------------=
   JOB DONE.
=------------------------------------------------------------------------------=
Note: The following floating-point exceptions are signalling: IEEE_INVALID_FLAG IEEE_DIVIDE_BY_ZERO IEEE_UNDERFLOW_FLAG

     total cpu time spent up to now is       21.3 secs

     End of self-consistent calculation

     Number of k-points >= 100: set verbosity='high' to print the bands.

     the Fermi energy is    19.4704 ev

!    total energy              =    -117.92899490 Ry
     estimated scf accuracy    <          1.7E-11 Ry
     smearing contrib. (-TS)   =      -0.00007382 Ry
     internal energy E=F+TS    =    -117.92892108 Ry

     The total energy is F=E-TS. E is the sum of the following terms:
     one-electron contribution =     -12.67858602 Ry
     hartree contribution      =      14.10143585 Ry
     xc contribution           =     -18.52710649 Ry
     ewald contribution        =    -100.82466442 Ry

     convergence has been achieved in   9 iterations

     Writing all to output data dir ./tmp/Nb_eos_6.10.save/

     init_run     :      0.97s CPU      1.00s WALL (       1 calls)
     electrons    :     19.27s CPU     20.23s WALL (       1 calls)

     Called by init_run:
     wfcinit      :      0.74s CPU      0.75s WALL (       1 calls)
     potinit      :      0.02s CPU      0.02s WALL (       1 calls)
     hinit0       :      0.17s CPU      0.19s WALL (       1 calls)

     Called by electrons:
     c_bands      :     15.62s CPU     16.38s WALL (      10 calls)
     sum_band     :      3.35s CPU      3.50s WALL (      10 calls)
     v_of_rho     :      0.12s CPU      0.13s WALL (      10 calls)
     newd         :      0.19s CPU      0.23s WALL (      10 calls)
     mix_rho      :      0.01s CPU      0.01s WALL (      10 calls)

     Called by c_bands:
     init_us_2    :      0.39s CPU      0.42s WALL (    3045 calls)
     init_us_2:cp :      0.39s CPU      0.41s WALL (    3045 calls)
     cegterg      :     15.01s CPU     15.74s WALL (    1450 calls)

     Called by *egterg:
     cdiaghg      :      0.31s CPU      0.33s WALL (    4568 calls)
     h_psi        :     13.76s CPU     14.35s WALL (    4858 calls)
     s_psi        :      0.25s CPU      0.27s WALL (    4858 calls)
     g_psi        :      0.04s CPU      0.04s WALL (    3263 calls)

     Called by h_psi:
     h_psi:calbec :      0.29s CPU      0.30s WALL (    4858 calls)
     vloc_psi     :     13.18s CPU     13.73s WALL (    4858 calls)
     add_vuspsi   :      0.26s CPU      0.27s WALL (    4858 calls)

     General routines
     calbec       :      0.40s CPU      0.42s WALL (    6308 calls)
     fft          :      0.06s CPU      0.06s WALL (     129 calls)
     ffts         :      0.01s CPU      0.01s WALL (      20 calls)
     fftw         :     13.77s CPU     14.31s WALL (   93800 calls)
     interpolate  :      0.01s CPU      0.01s WALL (      10 calls)


     PWSCF        :     20.30s CPU     21.32s WALL


   This run was terminated on:  23:14:51   6Mar2026            

=------------------------------------------------------------------------------=
   JOB DONE.
=------------------------------------------------------------------------------=
Note: The following floating-point exceptions are signalling: IEEE_INVALID_FLAG IEEE_DIVIDE_BY_ZERO IEEE_UNDERFLOW_FLAG
