
     Program PWSCF v.7.2 starts on  6Mar2026 at 23:14: 0 

     This program is part of the open-source Quantum ESPRESSO suite
     for quantum simulation of materials; please cite
         "P. Giannozzi et al., J. Phys.:Condens. Matter 21 395502 (2009);
         "P. Giannozzi et al., J. Phys.:Condens. Matter 29 465901 (2017);
         "P. Giannozzi et al., J. Chem. Phys. 152 154105 (2020);
          URL http://www.quantum-espresso.org", 
     in publications or presentations arising from this work. More details at
     http://www.quantum-espresso.org/quote

     Serial multi-threaded version, running on    1 processor cores

     Program PWSCF v.7.2 starts on  6Mar2026 at 23:14: 0 

     This program is part of the open-source Quantum ESPRESSO suite
     for quantum simulation of materials; please cite
         "P. Giannozzi et al., J. Phys.:Condens. Matter 21 395502 (2009);
         "P. Giannozzi et al., J. Phys.:Condens. Matter 29 465901 (2017);
         "P. Giannozzi et al., J. Chem. Phys. 152 154105 (2020);
          URL http://www.quantum-espresso.org", 
     in publications or presentations arising from this work. More details at
     http://www.quantum-espresso.org/quote

     Serial multi-threaded version, running on    1 processor cores

     Program PWSCF v.7.2 starts on  6Mar2026 at 23:14: 0 

     This program is part of the open-source Quantum ESPRESSO suite
     for quantum simulation of materials; please cite
         "P. Giannozzi et al., J. Phys.:Condens. Matter 21 395502 (2009);
         "P. Giannozzi et al., J. Phys.:Condens. Matter 29 465901 (2017);
         "P. Giannozzi et al., J. Chem. Phys. 152 154105 (2020);
          URL http://www.quantum-espresso.org", 
     in publications or presentations arising from this work. More details at
     http://www.quantum-espresso.org/quote

     Serial multi-threaded version, running on    1 processor cores

     Program PWSCF v.7.2 starts on  6Mar2026 at 23:14: 0 

     This program is part of the open-source Quantum ESPRESSO suite
     for quantum simulation of materials; please cite
         "P. Giannozzi et al., J. Phys.:Condens. Matter 21 395502 (2009);
         "P. Giannozzi et al., J. Phys.:Condens. Matter 29 465901 (2017);
         "P. Giannozzi et al., J. Chem. Phys. 152 154105 (2020);
          URL http://www.quantum-espresso.org", 
     in publications or presentations arising from this work. More details at
     http://www.quantum-espresso.org/quote

     Serial multi-threaded version, running on    1 processor cores
     0 MiB available memory on the printing compute node when the environment starts

     0 MiB available memory on the printing compute node when the environment starts

     0 MiB available memory on the printing compute node when the environment starts

     0 MiB available memory on the printing compute node when the environment starts


     Program PWSCF v.7.2 starts on  6Mar2026 at 23:14: 0 

     This program is part of the open-source Quantum ESPRESSO suite
     for quantum simulation of materials; please cite
         "P. Giannozzi et al., J. Phys.:Condens. Matter 21 395502 (2009);
         "P. Giannozzi et al., J. Phys.:Condens. Matter 29 465901 (2017);
         "P. Giannozzi et al., J. Chem. Phys. 152 154105 (2020);
          URL http://www.quantum-espresso.org", 
     in publications or presentations arising from this work. More details at
     http://www.quantum-espresso.org/quote

     Serial multi-threaded version, running on    1 processor cores
     0 MiB available memory on the printing compute node when the environment starts


     Program PWSCF v.7.2 starts on  6Mar2026 at 23:14: 0 

     This program is part of the open-source Quantum ESPRESSO suite
     for quantum simulation of materials; please cite
         "P. Giannozzi et al., J. Phys.:Condens. Matter 21 395502 (2009);
         "P. Giannozzi et al., J. Phys.:Condens. Matter 29 465901 (2017);
         "P. Giannozzi et al., J. Chem. Phys. 152 154105 (2020);
          URL http://www.quantum-espresso.org", 
     in publications or presentations arising from this work. More details at
     http://www.quantum-espresso.org/quote

     Serial multi-threaded version, running on    1 processor cores
     0 MiB available memory on the printing compute node when the environment starts

     Reading input from results/eos/Nb_eos_6.00.in
     Reading input from results/eos/Nb_eos_6.00.in
     Reading input from results/eos/Nb_eos_6.00.in
     Reading input from results/eos/Nb_eos_6.00.in
     Reading input from results/eos/Nb_eos_6.00.in
     Reading input from results/eos/Nb_eos_6.00.in

     Current dimensions of program PWSCF are:
     Max number of different atomic species (ntypx) = 10
     Max number of k-points (npk) =  40000
     Max angular momentum in pseudopotentials (lmaxx) =  4

     Current dimensions of program PWSCF are:
     Max number of different atomic species (ntypx) = 10
     Max number of k-points (npk) =  40000
     Max angular momentum in pseudopotentials (lmaxx) =  4

     Current dimensions of program PWSCF are:
     Max number of different atomic species (ntypx) = 10
     Max number of k-points (npk) =  40000
     Max angular momentum in pseudopotentials (lmaxx) =  4

     Current dimensions of program PWSCF are:
     Max number of different atomic species (ntypx) = 10
     Max number of k-points (npk) =  40000
     Max angular momentum in pseudopotentials (lmaxx) =  4

     Current dimensions of program PWSCF are:
     Max number of different atomic species (ntypx) = 10
     Max number of k-points (npk) =  40000
     Max angular momentum in pseudopotentials (lmaxx) =  4

     Current dimensions of program PWSCF are:
     Max number of different atomic species (ntypx) = 10
     Max number of k-points (npk) =  40000
     Max angular momentum in pseudopotentials (lmaxx) =  4







     G-vector sticks info
     --------------------
     sticks:   dense  smooth     PW     G-vecs:    dense   smooth      PW
     Sum        1137     561    173                24295     8583    1505

     Using Slab Decomposition


     G-vector sticks info
     --------------------
     sticks:   dense  smooth     PW     G-vecs:    dense   smooth      PW
     Sum        1137     561    173                24295     8583    1505

     Using Slab Decomposition


     G-vector sticks info
     --------------------
     sticks:   dense  smooth     PW     G-vecs:    dense   smooth      PW
     Sum        1137     561    173                24295     8583    1505

     Using Slab Decomposition


     G-vector sticks info
     --------------------
     sticks:   dense  smooth     PW     G-vecs:    dense   smooth      PW
     Sum        1137     561    173                24295     8583    1505

     Using Slab Decomposition


     G-vector sticks info
     --------------------
     sticks:   dense  smooth     PW     G-vecs:    dense   smooth      PW
     Sum        1137     561    173                24295     8583    1505

     Using Slab Decomposition


     G-vector sticks info
     --------------------
     sticks:   dense  smooth     PW     G-vecs:    dense   smooth      PW
     Sum        1137     561    173                24295     8583    1505

     Using Slab Decomposition



     bravais-lattice index     =            3
     lattice parameter (alat)  =       6.0000  a.u.
     unit-cell volume          =     108.0000 (a.u.)^3
     number of atoms/cell      =            1
     number of atomic types    =            1
     number of electrons       =        13.00
     number of Kohn-Sham states=           11
     kinetic-energy cutoff     =      70.0000  Ry
     charge density cutoff     =     560.0000  Ry
     scf convergence threshold =      1.0E-10
     mixing beta               =       0.4000
     number of iterations used =            8  plain     mixing
     Exchange-correlation= SLA  PW   PBE  PBE
                           (   1   4   3   4   0   0   0)


     bravais-lattice index     =            3
     lattice parameter (alat)  =       6.0000  a.u.
     unit-cell volume          =     108.0000 (a.u.)^3
     number of atoms/cell      =            1
     number of atomic types    =            1
     number of electrons       =        13.00
     number of Kohn-Sham states=           11
     kinetic-energy cutoff     =      70.0000  Ry
     charge density cutoff     =     560.0000  Ry
     scf convergence threshold =      1.0E-10
     mixing beta               =       0.4000
     number of iterations used =            8  plain     mixing
     Exchange-correlation= SLA  PW   PBE  PBE
                           (   1   4   3   4   0   0   0)

     celldm(1)=   6.000000  celldm(2)=   0.000000  celldm(3)=   0.000000
     celldm(4)=   0.000000  celldm(5)=   0.000000  celldm(6)=   0.000000

     crystal axes: (cart. coord. in units of alat)
               a(1) = (   0.500000   0.500000   0.500000 )  
               a(2) = (  -0.500000   0.500000   0.500000 )  
    

     bravais-lattice index     =            3
     lattice parameter (alat)  =       6.0000  a.u.
     unit-cell volume          =     108.0000 (a.u.)^3
     number of atoms/cell      =            1
     number of atomic types    =            1
     number of electrons       =        13.00
     number of Kohn-Sham states=           11
     kinetic-energy cutoff     =      70.0000  Ry
     charge density cutoff     =     560.0000  Ry
     scf convergence threshold =      1.0E-10
     mixing beta               =       0.4000
     number of iterations used =            8  plain     mixing
     Exchange-correlation= SLA  PW   PBE  PBE
                           (   1   4   3   4   0   0   0)

     celldm(1)=   6.000000  celldm(2)=   0.000000  celldm(3)=   0.000000
     celldm(4)=   0.000000  celldm(5)=   0.000000  celldm(6)=   0.000000

     crystal axes: (cart. coord. in units of alat)
               a(1) = (   0.500000   0.500000   0.500000 )  
               a(2) = (  -0.500000   0.500000   0.500000 )  
    

     bravais-lattice index     =            3
     lattice parameter (alat)  =       6.0000  a.u.
     unit-cell volume          =     108.0000 (a.u.)^3
     number of atoms/cell      =            1
     number of atomic types    =            1
     number of electrons       =        13.00
     number of Kohn-Sham states=           11
     kinetic-energy cutoff     =      70.0000  Ry
     charge density cutoff     =     560.0000  Ry
     scf convergence threshold =      1.0E-10
     mixing beta               =       0.4000
     number of iterations used =            8  plain     mixing
     Exchange-correlation= SLA  PW   PBE  PBE
                           (   1   4   3   4   0   0   0)

     celldm(1)=   6.000000  celldm(2)=   0.000000  celldm(3)=   0.000000
     celldm(4)=   0.000000  celldm(5)=   0.000000  celldm(6)=   0.000000

     crystal axes: (cart. coord. in units of alat)
               a(1) = (   0.500000   0.500000   0.500000 )  
               a(2) = (  -0.500000   0.500000   0.500000 )  
    

     bravais-lattice index     =            3
     lattice parameter (alat)  =       6.0000  a.u.
     unit-cell volume          =     108.0000 (a.u.)^3
     number of atoms/cell      =            1
     number of atomic types    =            1
     number of electrons       =        13.00
     number of Kohn-Sham states=           11
     kinetic-energy cutoff     =      70.0000  Ry
     charge density cutoff     =     560.0000  Ry
     scf convergence threshold =      1.0E-10
     mixing beta               =       0.4000
     number of iterations used =            8  plain     mixing
     Exchange-correlation= SLA  PW   PBE  PBE
                           (   1   4   3   4   0   0   0)

     celldm(1)=   6.000000  celldm(2)=   0.000000  celldm(3)=   0.000000
     celldm(4)=   0.000000  celldm(5)=   0.000000  celldm(6)=   0.000000

     crystal axes: (cart. coord. in units of alat)
               a(1) = (   0.500000   0.500000   0.500000 )  
               a(2) = (  -0.500000   0.500000   0.500000 )  
    
     celldm(1)=   6.000000  celldm(2)=   0.000000  celldm(3)=   0.000000
     celldm(4)=   0.000000  celldm(5)=   0.000000  celldm(6)=   0.000000

     crystal axes: (cart. coord. in units of alat)
               a(1) = (   0.500000   0.500000   0.500000 )  
               a(2) = (  -0.500000   0.500000   0.500000 )  
               a(3) = (  -0.500000  -0.500000   0.500000 )  

     reciprocal axes: (cart. coord. in units 2 pi/alat)
               b(1) = (  1.000000  0.000000  1.000000 )  
               b(2) = ( -1.000000  1.000000  0.000000 )  
               b(3) = (  0.000000 -1.000000  1.000000 )  


     PseudoPot. # 1 for Nb read from file:
     ./pseudo/nb_pbe_v1.uspp.F.UPF
     MD5 check sum: 573aab8a2fa660278ed4a62cd769473f
     Pseudo is Ultrasoft + core correction, Zval = 13.0
     Generated by new atomic code, or converted to UPF format
     Using radial grid of  887 points,  6 beta functions with: 
                l(1) =   0
                l(2) =   0
                l(3) =   1
                          a(3) = (  -0.500000  -0.500000   0.500000 )  

     reciprocal axes: (cart. coord. in units 2 pi/alat)
               b(1) = (  1.000000  0.000000  1.000000 )  
               b(2) = ( -1.000000  1.000000  0.000000 )  
               b(3) = (  0.000000 -1.000000  1.000000 )  


     PseudoPot. # 1 for Nb read from file:
     ./pseudo/nb_pbe_v1.uspp.F.UPF
           a(3) = (  -0.500000  -0.500000   0.500000 )  

           a(3) = (  -0.500000  -0.500000   0.500000 )  

     reciprocal axes: (cart. coord. in units 2 pi/alat)
               b(1) = (  1.000000  0.000000  1.000000 )  
               b(2) = ( -1.000000  1.000000  0.000000 )  


     bravais-lattice index     =            3
     lattice parameter (alat)  =       6.0000  a.u.
     unit-cell volume          =     108.0000 (a.u.)^3
     number of atoms/cell      =            1
     number of atomic types    =            1
     number of electrons       =        13.00
     number of Kohn-Sham states=           11
     kinetic-energy cutoff     =      70.0000  Ry
     charge density cutoff     =     560.0000  Ry
     scf convergence threshold =      1.0E-10
     mixing beta               =       0.4000
     number of iterations used =            8  plain     mixing
     Exchange-correlation= SLA  PW   PBE  PBE
     MD5 check sum: 573aab8a2fa660278ed4a62cd769473f
     Pseudo is Ultrasoft + core correction, Zval = 13.0
     Generated by new atomic code, or converted to UPF format
     Using radial grid of  887 points,  6 beta functions with: 
               b(3) = (  0.000000 -1.000000  1.000000 )  


     PseudoPot. # 1 for Nb read from file:
     ./pseudo/nb_pbe_v1.uspp.F.UPF
                           (   1   4   3   4   0   0   0)

     celldm(1)=   6.000000  celldm(2)=   0.000000  celldm(3)=   0.000000
     celldm(4)=   0.000000  celldm(5)=   0.000000  celldm(6)=   0.000000

                l(1) =   0
                l(2) =   0
                l(3) =   1
                l(4) =   1
                l(5) =   2
                l(6) =   2
     Q(r) pseudized with  6 coefficients,  rinner =    1.000   1.000   1.000
     MD5 check sum: 573aab8a2fa660278ed4a62cd769473f
     Pseudo is Ultrasoft + core correction, Zval = 13.0
     Generated by new atomic code, or converted to UPF format
     Using radial grid of  887 points,  6 beta functions with: 
                l(1) =   0
                l(2) =   0
     crystal axes: (cart. coord. in units of alat)
               a(1) = (   0.500000   0.500000   0.500000 )  
               a(2) = (  -0.500000   0.500000   0.500000 )  
               a(3) = (  -0.500000  -0.500000   0.500000 )  

     reciprocal axes: (cart. coord. in units 2 pi/alat)
               b(1) = (  1.000000  0.000000  1.000000 )  
                                                       1.000   1.000

     atomic species   valence    mass     pseudopotential
        Nb            13.00    92.90600     Nb( 1.00)

     48 Sym. Ops., with inversion, found



                l(3) =   1
                l(4) =   1
                l(5) =   2
                l(6) =   2
     Q(r) pseudized with  6 coefficients,  rinner =    1.000   1.000   1.000
                                                       1.000   1.000

     atomic species   valence    mass     pseudopotential
        Nb            13.00    92.90600     Nb( 1.00)

     reciprocal axes: (cart. coord. in units 2 pi/alat)
               b(1) = (  1.000000  0.000000  1.000000 )  
               b(2) = ( -1.000000  1.000000  0.000000 )  
               b(3) = (  0.000000 -1.000000  1.000000 )  


     PseudoPot. # 1 for Nb read from file:
     ./pseudo/nb_pbe_v1.uspp.F.UPF
     MD5 check sum: 573aab8a2fa660278ed4a62cd769473f
     Pseudo is Ultrasoft + core correction, Zval = 13.0
     Generated by new atomic code, or converted to UPF format
               b(2) = ( -1.000000  1.000000  0.000000 )  
               b(3) = (  0.000000 -1.000000  1.000000 )  


 l(4) =   1
                l(5) =   2
                l(6) =   2
     Q(r) pseudized with  6 coefficients,  rinner =    1.000   1.000   1.000
                                                       1.000   1.000

     atomic species   valence    mass     pseudopotential
        Nb            13.00    92.90600     Nb( 1.00)

     48 Sym. Ops., with inversion, found



   Cartesian axes
           a(3) = (  -0.500000  -0.500000   0.500000 )  

   Cartesian axes

     site n.     atom                  positions (alat units)
         1           Nb  tau(   1) = (   0.0000000   0.0000000   0.0000000  )

     number of k points=   145  Marzari-Vanderbilt smearing, width (Ry)=  0.0300

     Number of k-points >= 100: set verbosity='high' to print them.

     Dense  grid:    24295 G-vectors     FFT dimensions: (  40,  40,  40)
     48 Sym. Ops., with inversion, found



   Cartesian axes

     site n.     atom                  positions (alat units)
         1           Nb  tau(   1) = (   0.0000000   0.0000000   0.0000000  )

     Using radial grid of  887 points,  6 beta functions with: 
                l(1) =   0
                l(2) =   0
                l(3) =   1
                l(4) =   1
                l(5) =   2
                l(6) =   2
     PseudoPot. # 1 for Nb read from file:
     ./pseudo/nb_pbe_v1.uspp.F.UPF
     MD5 check sum: 573aab8a2fa660278ed4a62cd769473f

     site n.     atom                  positions (alat units)
         1           Nb  tau(   1) = (   0.0000000   0.0000000   0.0000000  )

     number of k points=   145  Marzari-Vanderbilt smearing, width (Ry)=  0.0300

     Number of k-points >= 100: set verbosity='high' to print them.


     Smooth grid:     8583 G-vectors     FFT dimensions: (  27,  27,  27)
     number of k points=   145  Marzari-Vanderbilt smearing, width (Ry)=  0.0300

     Number of k-points >= 100: set verbosity='high' to print them.

     Dense  grid:    24295 G-vectors     FFT dimensions: (  40,  40,  40)

     Q(r) pseudized with  6 coefficients,  rinner =    1.000   1.000   1.000
                                                       1.000   1.000

     atomic species   valence    mass     pseudopotential
        Nb            13.00    92.90600     Nb( 1.00)

     48 Sym. Ops., with inversion, found

     Dense  grid:    24295 G-vectors     FFT dimensions: (  40,  40,  40)

     Smooth grid:     8583 G-vectors     FFT dimensions: (  27,  27,  27)
     reciprocal axes: (cart. coord. in units 2 pi/alat)
               b(1) = (  1.000000  0.000000  1.000000 )  
     Smooth grid:     8583 G-vectors     FFT dimensions: (  27,  27,  27)


   Cartesian axes

     site n.     atom                  positions (alat units)
         1           Nb  tau(   1) = (   0.0000000   0.0000000   0.0000000  )

     number of k points=   145  Marzari-Vanderbilt smearing, width (Ry)=  0.0300

     Number of k-points >= 100: set verbosity='high' to print them.

     Dense  grid:    24295 G-vectors     FFT dimensions: (  40,  40,  40)

     Smooth grid:     8583 G-vectors     FFT dimensions: (  27,  27,  27)
               b(2) = ( -1.000000  1.000000  0.000000 )  
               b(3) = (  0.000000 -1.000000  1.000000 )  


     PseudoPot. # 1 for Nb read from file:
     ./pseudo/nb_pbe_v1.uspp.F.UPF
     MD5 check sum: 573aab8a2fa660278ed4a62cd769473f
     Pseudo is Ultrasoft + core correction, Zval = 13.0
     Pseudo is Ultrasoft + core correction, Zval = 13.0
     Generated by new atomic code, or converted to UPF format
     Using radial grid of  887 points,  6 beta functions with: 
     Generated by new atomic code, or converted to UPF format
     Using radial grid of  887 points,  6 beta functions with: 
                l(1) =   0
                l(2) =   0
                l(3) =   1
                l(4) =   1
                l(5) =   2
                l(6) =   2
                l(1) =   0
                l(2) =   0
                l(3) =   1
                l(4) =   1
                l(5) =   2
                l(6) =   2
     Q(r) pseudized with  6 coefficients,  rinner =    1.000   1.000   1.000
                                                       1.000   1.000

     atomic species   valence    mass     pseudopotential
     Q(r) pseudized with  6 coefficients,  rinner =    1.000   1.000   1.000
                                                       1.000   1.000

     atomic species   valence    mass     pseudopotential
        Nb            13.00    92.90600     Nb( 1.00)

     48 Sym. Ops., with inversion, found


        Nb            13.00    92.90600     Nb( 1.00)

     48 Sym. Ops., with inversion, found


   Cartesian axes

     site n.     atom                  positions (alat units)


   Cartesian axes

     site n.     atom                  positions (alat units)
         1           Nb  tau(   1) = (   0.0000000   0.0000000   0.0000000  )

     number of k points=   145  Marzari-Vanderbilt smearing, width (Ry)=  0.0300
         1           Nb  tau(   1) = (   0.0000000   0.0000000   0.0000000  )

     number of k points=   145  Marzari-Vanderbilt smearing, width (Ry)=  0.0300

     Number of k-points >= 100: set verbosity='high' to print them.

     Number of k-points >= 100: set verbosity='high' to print them.

     Dense  grid:    24295 G-vectors     FFT dimensions: (  40,  40,  40)

     Smooth grid:     8583 G-vectors     FFT dimensions: (  27,  27,  27)

     Dense  grid:    24295 G-vectors     FFT dimensions: (  40,  40,  40)

     Smooth grid:     8583 G-vectors     FFT dimensions: (  27,  27,  27)

     Estimated max dynamical RAM per process >     112.06 MB

     Estimated max dynamical RAM per process >     112.06 MB

     Estimated max dynamical RAM per process >     112.06 MB

     Estimated max dynamical RAM per process >     112.06 MB

     Estimated max dynamical RAM per process >     112.06 MB

     Estimated max dynamical RAM per process >     112.06 MB

     Initial potential from superposition of free atoms

     starting charge      12.9973, renormalised to      13.0000

     Initial potential from superposition of free atoms

     Initial potential from superposition of free atoms

     starting charge      12.9973, renormalised to      13.0000

     Initial potential from superposition of free atoms

     Initial potential from superposition of free atoms

     starting charge      12.9973, renormalised to      13.0000

     starting charge      12.9973, renormalised to      13.0000

     starting charge      12.9973, renormalised to      13.0000

     Initial potential from superposition of free atoms

     starting charge      12.9973, renormalised to      13.0000
     Starting wfcs are   13 randomized atomic wfcs
     Starting wfcs are   13 randomized atomic wfcs
     Starting wfcs are   13 randomized atomic wfcs
     Starting wfcs are   13 randomized atomic wfcs
     Starting wfcs are   13 randomized atomic wfcs
     Starting wfcs are   13 randomized atomic wfcs

     total cpu time spent up to now is        0.9 secs

     Self-consistent Calculation

     iteration #  1     ecut=    70.00 Ry     beta= 0.40
     Davidson diagonalization with overlap

     total cpu time spent up to now is        0.9 secs

     Self-consistent Calculation

     iteration #  1     ecut=    70.00 Ry     beta= 0.40
     Davidson diagonalization with overlap

     total cpu time spent up to now is        1.0 secs

     Self-consistent Calculation

     iteration #  1     ecut=    70.00 Ry     beta= 0.40
     Davidson diagonalization with overlap

     total cpu time spent up to now is        1.0 secs

     Self-consistent Calculation

     iteration #  1     ecut=    70.00 Ry     beta= 0.40
     Davidson diagonalization with overlap

     total cpu time spent up to now is        1.0 secs

     Self-consistent Calculation

     iteration #  1     ecut=    70.00 Ry     beta= 0.40
     Davidson diagonalization with overlap

     total cpu time spent up to now is        1.0 secs

     Self-consistent Calculation

     iteration #  1     ecut=    70.00 Ry     beta= 0.40
     Davidson diagonalization with overlap
     ethr =  1.00E-02,  avg # of iterations =  3.9
     ethr =  1.00E-02,  avg # of iterations =  3.9
     ethr =  1.00E-02,  avg # of iterations =  3.9
     ethr =  1.00E-02,  avg # of iterations =  3.9
     ethr =  1.00E-02,  avg # of iterations =  3.9
     ethr =  1.00E-02,  avg # of iterations =  3.9

     Threshold (ethr) on eigenvalues was too large:
     Diagonalizing with lowered threshold

     Davidson diagonalization with overlap

     Threshold (ethr) on eigenvalues was too large:
     Diagonalizing with lowered threshold

     Davidson diagonalization with overlap

     Threshold (ethr) on eigenvalues was too large:
     Diagonalizing with lowered threshold

     Davidson diagonalization with overlap

     Threshold (ethr) on eigenvalues was too large:
     Diagonalizing with lowered threshold

     Davidson diagonalization with overlap

     Threshold (ethr) on eigenvalues was too large:
     Diagonalizing with lowered threshold

     Davidson diagonalization with overlap

     Threshold (ethr) on eigenvalues was too large:
     Diagonalizing with lowered threshold

     Davidson diagonalization with overlap
     ethr =  5.22E-04,  avg # of iterations =  1.6
     ethr =  5.22E-04,  avg # of iterations =  1.6
     ethr =  5.22E-04,  avg # of iterations =  1.6
     ethr =  5.22E-04,  avg # of iterations =  1.6
     ethr =  5.22E-04,  avg # of iterations =  1.6

     total cpu time spent up to now is        3.5 secs

     total energy              =    -117.91833260 Ry
     estimated scf accuracy    <       0.06899241 Ry

     iteration #  2     ecut=    70.00 Ry     beta= 0.40
     Davidson diagonalization with overlap

     total cpu time spent up to now is        3.6 secs

     total energy              =    -117.91833260 Ry
     estimated scf accuracy    <       0.06899241 Ry

     iteration #  2     ecut=    70.00 Ry     beta= 0.40
     Davidson diagonalization with overlap
     ethr =  5.22E-04,  avg # of iterations =  1.6

     total cpu time spent up to now is        3.7 secs

     total energy              =    -117.91833260 Ry
     estimated scf accuracy    <       0.06899241 Ry

     iteration #  2     ecut=    70.00 Ry     beta= 0.40
     Davidson diagonalization with overlap

     total cpu time spent up to now is        3.7 secs

     total energy              =    -117.91833260 Ry
     estimated scf accuracy    <       0.06899241 Ry

     iteration #  2     ecut=    70.00 Ry     beta= 0.40
     Davidson diagonalization with overlap

     total cpu time spent up to now is        3.8 secs

     total energy              =    -117.91833260 Ry
     estimated scf accuracy    <       0.06899241 Ry

     iteration #  2     ecut=    70.00 Ry     beta= 0.40
     Davidson diagonalization with overlap

     total cpu time spent up to now is        3.9 secs

     total energy              =    -117.91833260 Ry
     estimated scf accuracy    <       0.06899241 Ry

     iteration #  2     ecut=    70.00 Ry     beta= 0.40
     Davidson diagonalization with overlap
     ethr =  5.31E-04,  avg # of iterations =  1.4
     ethr =  5.31E-04,  avg # of iterations =  1.4
     ethr =  5.31E-04,  avg # of iterations =  1.4
     ethr =  5.31E-04,  avg # of iterations =  1.4
     ethr =  5.31E-04,  avg # of iterations =  1.4

     total cpu time spent up to now is        4.7 secs

     total energy              =    -117.91965154 Ry
     estimated scf accuracy    <       0.01003507 Ry

     iteration #  3     ecut=    70.00 Ry     beta= 0.40
     Davidson diagonalization with overlap

     total cpu time spent up to now is        4.8 secs

     total energy              =    -117.91965154 Ry
     estimated scf accuracy    <       0.01003507 Ry

     iteration #  3     ecut=    70.00 Ry     beta= 0.40
     Davidson diagonalization with overlap
     ethr =  5.31E-04,  avg # of iterations =  1.4

     total cpu time spent up to now is        4.9 secs

     total energy              =    -117.91965154 Ry
     estimated scf accuracy    <       0.01003507 Ry

     iteration #  3     ecut=    70.00 Ry     beta= 0.40
     Davidson diagonalization with overlap

     total cpu time spent up to now is        5.0 secs

     total energy              =    -117.91965154 Ry
     estimated scf accuracy    <       0.01003507 Ry

     iteration #  3     ecut=    70.00 Ry     beta= 0.40
     Davidson diagonalization with overlap

     total cpu time spent up to now is        5.0 secs

     total energy              =    -117.91965154 Ry
     estimated scf accuracy    <       0.01003507 Ry

     iteration #  3     ecut=    70.00 Ry     beta= 0.40
     Davidson diagonalization with overlap

     total cpu time spent up to now is        5.2 secs

     total energy              =    -117.91965154 Ry
     estimated scf accuracy    <       0.01003507 Ry

     iteration #  3     ecut=    70.00 Ry     beta= 0.40
     Davidson diagonalization with overlap
     ethr =  7.72E-05,  avg # of iterations =  2.5
     ethr =  7.72E-05,  avg # of iterations =  2.5
     ethr =  7.72E-05,  avg # of iterations =  2.5
     ethr =  7.72E-05,  avg # of iterations =  2.5

     total cpu time spent up to now is        6.1 secs

     total energy              =    -117.92138339 Ry
     estimated scf accuracy    <       0.00050129 Ry

     iteration #  4     ecut=    70.00 Ry     beta= 0.40
     Davidson diagonalization with overlap
     ethr =  7.72E-05,  avg # of iterations =  2.5
     ethr =  7.72E-05,  avg # of iterations =  2.5

     total cpu time spent up to now is        6.2 secs

     total energy              =    -117.92138339 Ry
     estimated scf accuracy    <       0.00050129 Ry

     iteration #  4     ecut=    70.00 Ry     beta= 0.40
     Davidson diagonalization with overlap

     total cpu time spent up to now is        6.3 secs

     total energy              =    -117.92138339 Ry
     estimated scf accuracy    <       0.00050129 Ry

     iteration #  4     ecut=    70.00 Ry     beta= 0.40
     Davidson diagonalization with overlap

     total cpu time spent up to now is        6.3 secs

     total energy              =    -117.92138339 Ry
     estimated scf accuracy    <       0.00050129 Ry

     iteration #  4     ecut=    70.00 Ry     beta= 0.40
     Davidson diagonalization with overlap

     total cpu time spent up to now is        6.4 secs

     total energy              =    -117.92138339 Ry
     estimated scf accuracy    <       0.00050129 Ry

     iteration #  4     ecut=    70.00 Ry     beta= 0.40
     Davidson diagonalization with overlap

     total cpu time spent up to now is        6.4 secs

     total energy              =    -117.92138339 Ry
     estimated scf accuracy    <       0.00050129 Ry

     iteration #  4     ecut=    70.00 Ry     beta= 0.40
     Davidson diagonalization with overlap
     ethr =  3.86E-06,  avg # of iterations =  3.4
     ethr =  3.86E-06,  avg # of iterations =  3.4
     ethr =  3.86E-06,  avg # of iterations =  3.4
     ethr =  3.86E-06,  avg # of iterations =  3.4
     ethr =  3.86E-06,  avg # of iterations =  3.4
     ethr =  3.86E-06,  avg # of iterations =  3.4

     total cpu time spent up to now is        7.6 secs

     total energy              =    -117.92142438 Ry
     estimated scf accuracy    <       0.00005389 Ry

     iteration #  5     ecut=    70.00 Ry     beta= 0.40
     Davidson diagonalization with overlap

     total cpu time spent up to now is        7.7 secs

     total energy              =    -117.92142438 Ry
     estimated scf accuracy    <       0.00005389 Ry

     iteration #  5     ecut=    70.00 Ry     beta= 0.40
     Davidson diagonalization with overlap

     total cpu time spent up to now is        7.7 secs

     total energy              =    -117.92142438 Ry
     estimated scf accuracy    <       0.00005389 Ry

     iteration #  5     ecut=    70.00 Ry     beta= 0.40
     Davidson diagonalization with overlap

     total cpu time spent up to now is        7.7 secs

     total energy              =    -117.92142438 Ry
     estimated scf accuracy    <       0.00005389 Ry

     iteration #  5     ecut=    70.00 Ry     beta= 0.40
     Davidson diagonalization with overlap

     total cpu time spent up to now is        7.8 secs

     total energy              =    -117.92142438 Ry
     estimated scf accuracy    <       0.00005389 Ry

     iteration #  5     ecut=    70.00 Ry     beta= 0.40
     Davidson diagonalization with overlap

     total cpu time spent up to now is        7.8 secs

     total energy              =    -117.92142438 Ry
     estimated scf accuracy    <       0.00005389 Ry

     iteration #  5     ecut=    70.00 Ry     beta= 0.40
     Davidson diagonalization with overlap
     ethr =  4.15E-07,  avg # of iterations =  2.0
     ethr =  4.15E-07,  avg # of iterations =  2.0
     ethr =  4.15E-07,  avg # of iterations =  2.0
     ethr =  4.15E-07,  avg # of iterations =  2.0
     ethr =  4.15E-07,  avg # of iterations =  2.0
     ethr =  4.15E-07,  avg # of iterations =  2.0

     total cpu time spent up to now is        9.0 secs

     total energy              =    -117.92143467 Ry
     estimated scf accuracy    <       0.00000344 Ry

     iteration #  6     ecut=    70.00 Ry     beta= 0.40
     Davidson diagonalization with overlap

     total cpu time spent up to now is        9.1 secs

     total energy              =    -117.92143467 Ry
     estimated scf accuracy    <       0.00000344 Ry

     iteration #  6     ecut=    70.00 Ry     beta= 0.40
     Davidson diagonalization with overlap

     total cpu time spent up to now is        9.1 secs

     total energy              =    -117.92143467 Ry
     estimated scf accuracy    <       0.00000344 Ry

     iteration #  6     ecut=    70.00 Ry     beta= 0.40
     Davidson diagonalization with overlap

     total cpu time spent up to now is        9.1 secs

     total energy              =    -117.92143467 Ry
     estimated scf accuracy    <       0.00000344 Ry

     iteration #  6     ecut=    70.00 Ry     beta= 0.40
     Davidson diagonalization with overlap

     total cpu time spent up to now is        9.2 secs

     total energy              =    -117.92143467 Ry
     estimated scf accuracy    <       0.00000344 Ry

     iteration #  6     ecut=    70.00 Ry     beta= 0.40
     Davidson diagonalization with overlap

     total cpu time spent up to now is        9.3 secs

     total energy              =    -117.92143467 Ry
     estimated scf accuracy    <       0.00000344 Ry

     iteration #  6     ecut=    70.00 Ry     beta= 0.40
     Davidson diagonalization with overlap
     ethr =  2.65E-08,  avg # of iterations =  1.4
     ethr =  2.65E-08,  avg # of iterations =  1.4
     ethr =  2.65E-08,  avg # of iterations =  1.4
     ethr =  2.65E-08,  avg # of iterations =  1.4
     ethr =  2.65E-08,  avg # of iterations =  1.4
     ethr =  2.65E-08,  avg # of iterations =  1.4

     total cpu time spent up to now is       10.2 secs

     total energy              =    -117.92143493 Ry
     estimated scf accuracy    <       0.00000005 Ry

     iteration #  7     ecut=    70.00 Ry     beta= 0.40
     Davidson diagonalization with overlap

     total cpu time spent up to now is       10.3 secs

     total energy              =    -117.92143493 Ry
     estimated scf accuracy    <       0.00000005 Ry

     iteration #  7     ecut=    70.00 Ry     beta= 0.40
     Davidson diagonalization with overlap

     total cpu time spent up to now is       10.3 secs

     total energy              =    -117.92143493 Ry
     estimated scf accuracy    <       0.00000005 Ry

     iteration #  7     ecut=    70.00 Ry     beta= 0.40
     Davidson diagonalization with overlap

     total cpu time spent up to now is       10.4 secs

     total energy              =    -117.92143493 Ry
     estimated scf accuracy    <       0.00000005 Ry

     iteration #  7     ecut=    70.00 Ry     beta= 0.40
     Davidson diagonalization with overlap

     total cpu time spent up to now is       10.5 secs

     total energy              =    -117.92143493 Ry
     estimated scf accuracy    <       0.00000005 Ry

     iteration #  7     ecut=    70.00 Ry     beta= 0.40
     Davidson diagonalization with overlap

     total cpu time spent up to now is       10.5 secs

     total energy              =    -117.92143493 Ry
     estimated scf accuracy    <       0.00000005 Ry

     iteration #  7     ecut=    70.00 Ry     beta= 0.40
     Davidson diagonalization with overlap
     ethr =  4.18E-10,  avg # of iterations =  2.1
     ethr =  4.18E-10,  avg # of iterations =  2.1
     ethr =  4.18E-10,  avg # of iterations =  2.1
     ethr =  4.18E-10,  avg # of iterations =  2.1

     total cpu time spent up to now is       11.7 secs

     total energy              =    -117.92143496 Ry
     estimated scf accuracy    <       0.00000001 Ry

     iteration #  8     ecut=    70.00 Ry     beta= 0.40
     Davidson diagonalization with overlap
     ethr =  4.18E-10,  avg # of iterations =  2.1

     total cpu time spent up to now is       11.8 secs

     total energy              =    -117.92143496 Ry
     estimated scf accuracy    <       0.00000001 Ry

     iteration #  8     ecut=    70.00 Ry     beta= 0.40
     Davidson diagonalization with overlap

     total cpu time spent up to now is       11.8 secs

     total energy              =    -117.92143496 Ry
     estimated scf accuracy    <       0.00000001 Ry

     iteration #  8     ecut=    70.00 Ry     beta= 0.40
     Davidson diagonalization with overlap
     ethr =  4.18E-10,  avg # of iterations =  2.1

     total cpu time spent up to now is       11.9 secs

     total energy              =    -117.92143496 Ry
     estimated scf accuracy    <       0.00000001 Ry

     iteration #  8     ecut=    70.00 Ry     beta= 0.40
     Davidson diagonalization with overlap

     total cpu time spent up to now is       12.0 secs

     total energy              =    -117.92143496 Ry
     estimated scf accuracy    <       0.00000001 Ry

     iteration #  8     ecut=    70.00 Ry     beta= 0.40
     Davidson diagonalization with overlap

     total cpu time spent up to now is       12.1 secs

     total energy              =    -117.92143496 Ry
     estimated scf accuracy    <       0.00000001 Ry

     iteration #  8     ecut=    70.00 Ry     beta= 0.40
     Davidson diagonalization with overlap
     ethr =  9.81E-11,  avg # of iterations =  1.0
     ethr =  9.81E-11,  avg # of iterations =  1.0
     ethr =  9.81E-11,  avg # of iterations =  1.0

     total cpu time spent up to now is       12.8 secs

     total energy              =    -117.92143495 Ry
     estimated scf accuracy    <          4.2E-09 Ry

     iteration #  9     ecut=    70.00 Ry     beta= 0.40
     Davidson diagonalization with overlap
     ethr =  9.81E-11,  avg # of iterations =  1.0
     ethr =  9.81E-11,  avg # of iterations =  1.0

     total cpu time spent up to now is       12.9 secs

     total energy              =    -117.92143495 Ry
     estimated scf accuracy    <          4.2E-09 Ry

     iteration #  9     ecut=    70.00 Ry     beta= 0.40
     Davidson diagonalization with overlap

     total cpu time spent up to now is       13.0 secs

     total energy              =    -117.92143495 Ry
     estimated scf accuracy    <          4.2E-09 Ry

     iteration #  9     ecut=    70.00 Ry     beta= 0.40
     Davidson diagonalization with overlap
     ethr =  9.81E-11,  avg # of iterations =  1.0

     total cpu time spent up to now is       13.1 secs

     total energy              =    -117.92143495 Ry
     estimated scf accuracy    <          4.2E-09 Ry

     iteration #  9     ecut=    70.00 Ry     beta= 0.40
     Davidson diagonalization with overlap

     total cpu time spent up to now is       13.2 secs

     total energy              =    -117.92143495 Ry
     estimated scf accuracy    <          4.2E-09 Ry

     iteration #  9     ecut=    70.00 Ry     beta= 0.40
     Davidson diagonalization with overlap

     total cpu time spent up to now is       13.3 secs

     total energy              =    -117.92143495 Ry
     estimated scf accuracy    <          4.2E-09 Ry

     iteration #  9     ecut=    70.00 Ry     beta= 0.40
     Davidson diagonalization with overlap
     ethr =  3.27E-11,  avg # of iterations =  2.0
     ethr =  3.27E-11,  avg # of iterations =  2.0
     ethr =  3.27E-11,  avg # of iterations =  2.0

     total cpu time spent up to now is       14.2 secs

     End of self-consistent calculation

     Number of k-points >= 100: set verbosity='high' to print the bands.

     the Fermi energy is    20.5971 ev

!    total energy              =    -117.92143496 Ry
     estimated scf accuracy    <          1.8E-11 Ry
     smearing contrib. (-TS)   =      -0.00018938 Ry
     internal energy E=F+TS    =    -117.92124558 Ry

     The total energy is F=E-TS. E is the sum of the following terms:
     one-electron contribution =     -10.33979316 Ry
     hartree contribution      =      13.51342577 Ry
     xc contribution           =     -18.58980269 Ry
     ewald contribution        =    -102.50507549 Ry

     convergence has been achieved in   9 iterations

     Writing all to output data dir ./tmp/Nb_eos_6.00.save/
     ethr =  3.27E-11,  avg # of iterations =  2.0

     total cpu time spent up to now is       14.3 secs

     End of self-consistent calculation

     Number of k-points >= 100: set verbosity='high' to print the bands.

     the Fermi energy is    20.5971 ev

!    total energy              =    -117.92143496 Ry
     estimated scf accuracy    <          1.8E-11 Ry
     smearing contrib. (-TS)   =      -0.00018938 Ry
     internal energy E=F+TS    =    -117.92124558 Ry

     The total energy is F=E-TS. E is the sum of the following terms:
     one-electron contribution =     -10.33979316 Ry
     hartree contribution      =      13.51342577 Ry
     xc contribution           =     -18.58980269 Ry
     ewald contribution        =    -102.50507549 Ry

     convergence has been achieved in   9 iterations

     Writing all to output data dir ./tmp/Nb_eos_6.00.save/

     init_run     :      0.79s CPU      0.93s WALL (       1 calls)
     electrons    :     12.49s CPU     13.21s WALL (       1 calls)

     Called by init_run:
     wfcinit      :      0.57s CPU      0.62s WALL (       1 calls)
     potinit      :      0.02s CPU      0.02s WALL (       1 calls)
     hinit0       :      0.16s CPU      0.17s WALL (       1 calls)

     Called by electrons:
     c_bands      :      9.89s CPU     10.42s WALL (      10 calls)
     sum_band     :      2.31s CPU      2.46s WALL (      10 calls)
     v_of_rho     :      0.12s CPU      0.13s WALL (      10 calls)
     newd         :      0.18s CPU      0.30s WALL (      10 calls)
     mix_rho      :      0.01s CPU      0.01s WALL (      10 calls)

     Called by c_bands:
     init_us_2    :      0.35s CPU      0.37s WALL (    3045 calls)
     init_us_2:cp :      0.35s CPU      0.37s WALL (    3045 calls)
     cegterg      :      9.36s CPU      9.86s WALL (    1450 calls)

     Called by *egterg:
     cdiaghg      :      0.27s CPU      0.29s WALL (    4396 calls)
     h_psi        :      8.21s CPU      8.61s WALL (    4686 calls)
     s_psi        :      0.22s CPU      0.23s WALL (    4686 calls)
     g_psi        :      0.03s CPU      0.03s WALL (    3091 calls)

     Called by h_psi:
     h_psi:calbec :      0.25s CPU      0.27s WALL (    4686 calls)
     vloc_psi     :      7.71s CPU      8.07s WALL (    4686 calls)
     add_vuspsi   :      0.22s CPU      0.24s WALL (    4686 calls)

     General routines
     calbec       :      0.35s CPU      0.37s WALL (    6136 calls)
     fft          :      0.06s CPU      0.06s WALL (     129 calls)
     ffts         :      0.00s CPU      0.01s WALL (      20 calls)
     fftw         :      7.61s CPU      7.96s WALL (   93092 calls)
     interpolate  :      0.01s CPU      0.01s WALL (      10 calls)


     PWSCF        :     13.34s CPU     14.30s WALL


   This run was terminated on:  23:14:14   6Mar2026            

=------------------------------------------------------------------------------=
   JOB DONE.
=------------------------------------------------------------------------------=
Note: The following floating-point exceptions are signalling: IEEE_INVALID_FLAG IEEE_DIVIDE_BY_ZERO IEEE_UNDERFLOW_FLAG
     ethr =  3.27E-11,  avg # of iterations =  2.0

     init_run     :      0.78s CPU      0.92s WALL (       1 calls)
     electrons    :     12.70s CPU     13.30s WALL (       1 calls)

     Called by init_run:
     wfcinit      :      0.56s CPU      0.60s WALL (       1 calls)
     potinit      :      0.02s CPU      0.02s WALL (       1 calls)
     hinit0       :      0.16s CPU      0.17s WALL (       1 calls)

     Called by electrons:
     c_bands      :     10.09s CPU     10.52s WALL (      10 calls)
     sum_band     :      2.30s CPU      2.41s WALL (      10 calls)
     v_of_rho     :      0.12s CPU      0.13s WALL (      10 calls)
     newd         :      0.20s CPU      0.33s WALL (      10 calls)
     mix_rho      :      0.01s CPU      0.01s WALL (      10 calls)

     Called by c_bands:
     init_us_2    :      0.36s CPU      0.37s WALL (    3045 calls)
     init_us_2:cp :      0.36s CPU      0.37s WALL (    3045 calls)
     cegterg      :      9.55s CPU      9.95s WALL (    1450 calls)

     Called by *egterg:
     cdiaghg      :      0.28s CPU      0.29s WALL (    4396 calls)
     h_psi        :      8.35s CPU      8.68s WALL (    4686 calls)
     s_psi        :      0.23s CPU      0.24s WALL (    4686 calls)
     g_psi        :      0.03s CPU      0.04s WALL (    3091 calls)

     Called by h_psi:
     h_psi:calbec :      0.26s CPU      0.27s WALL (    4686 calls)
     vloc_psi     :      7.84s CPU      8.14s WALL (    4686 calls)
     add_vuspsi   :      0.23s CPU      0.24s WALL (    4686 calls)

     General routines
     calbec       :      0.36s CPU      0.37s WALL (    6136 calls)
     fft          :      0.06s CPU      0.06s WALL (     129 calls)
     ffts         :      0.00s CPU      0.01s WALL (      20 calls)
     fftw         :      7.71s CPU      7.99s WALL (   93092 calls)
     interpolate  :      0.01s CPU      0.01s WALL (      10 calls)


     PWSCF        :     13.54s CPU     14.35s WALL


   This run was terminated on:  23:14:14   6Mar2026            

=------------------------------------------------------------------------------=
   JOB DONE.
=------------------------------------------------------------------------------=
Note: The following floating-point exceptions are signalling: IEEE_INVALID_FLAG IEEE_DIVIDE_BY_ZERO IEEE_UNDERFLOW_FLAG

     total cpu time spent up to now is       14.4 secs

     End of self-consistent calculation

     Number of k-points >= 100: set verbosity='high' to print the bands.

     the Fermi energy is    20.5971 ev

!    total energy              =    -117.92143496 Ry
     estimated scf accuracy    <          1.8E-11 Ry
     smearing contrib. (-TS)   =      -0.00018938 Ry
     internal energy E=F+TS    =    -117.92124558 Ry

     The total energy is F=E-TS. E is the sum of the following terms:
     one-electron contribution =     -10.33979316 Ry
     hartree contribution      =      13.51342577 Ry
     xc contribution           =     -18.58980269 Ry
     ewald contribution        =    -102.50507549 Ry

     convergence has been achieved in   9 iterations

     Writing all to output data dir ./tmp/Nb_eos_6.00.save/
     ethr =  3.27E-11,  avg # of iterations =  2.0

     init_run     :      0.80s CPU      0.95s WALL (       1 calls)
     electrons    :     12.60s CPU     13.36s WALL (       1 calls)

     Called by init_run:
     wfcinit      :      0.58s CPU      0.64s WALL (       1 calls)
     potinit      :      0.02s CPU      0.02s WALL (       1 calls)
     hinit0       :      0.17s CPU      0.17s WALL (       1 calls)

     Called by electrons:
     c_bands      :     10.00s CPU     10.55s WALL (      10 calls)
     sum_band     :      2.31s CPU      2.46s WALL (      10 calls)
     v_of_rho     :      0.13s CPU      0.14s WALL (      10 calls)
     newd         :      0.18s CPU      0.30s WALL (      10 calls)
     mix_rho      :      0.01s CPU      0.01s WALL (      10 calls)

     Called by c_bands:
     init_us_2    :      0.36s CPU      0.37s WALL (    3045 calls)
     init_us_2:cp :      0.35s CPU      0.37s WALL (    3045 calls)
     cegterg      :      9.46s CPU      9.98s WALL (    1450 calls)

     Called by *egterg:
     cdiaghg      :      0.28s CPU      0.29s WALL (    4396 calls)
     h_psi        :      8.30s CPU      8.74s WALL (    4686 calls)
     s_psi        :      0.22s CPU      0.23s WALL (    4686 calls)
     g_psi        :      0.03s CPU      0.03s WALL (    3091 calls)

     Called by h_psi:
     h_psi:calbec :      0.25s CPU      0.27s WALL (    4686 calls)
     vloc_psi     :      7.80s CPU      8.19s WALL (    4686 calls)
     add_vuspsi   :      0.22s CPU      0.24s WALL (    4686 calls)

     General routines
     calbec       :      0.35s CPU      0.37s WALL (    6136 calls)
     fft          :      0.06s CPU      0.06s WALL (     129 calls)
     ffts         :      0.00s CPU      0.01s WALL (      20 calls)
     fftw         :      7.69s CPU      8.07s WALL (   93092 calls)
     interpolate  :      0.01s CPU      0.01s WALL (      10 calls)


     PWSCF        :     13.46s CPU     14.41s WALL


   This run was terminated on:  23:14:14   6Mar2026            

=------------------------------------------------------------------------------=
   JOB DONE.
=------------------------------------------------------------------------------=
Note: The following floating-point exceptions are signalling: IEEE_INVALID_FLAG IEEE_DIVIDE_BY_ZERO IEEE_UNDERFLOW_FLAG

     total cpu time spent up to now is       14.5 secs

     End of self-consistent calculation

     Number of k-points >= 100: set verbosity='high' to print the bands.

     the Fermi energy is    20.5971 ev

!    total energy              =    -117.92143496 Ry
     estimated scf accuracy    <          1.8E-11 Ry
     smearing contrib. (-TS)   =      -0.00018938 Ry
     internal energy E=F+TS    =    -117.92124558 Ry

     The total energy is F=E-TS. E is the sum of the following terms:
     one-electron contribution =     -10.33979316 Ry
     hartree contribution      =      13.51342577 Ry
     xc contribution           =     -18.58980269 Ry
     ewald contribution        =    -102.50507549 Ry

     convergence has been achieved in   9 iterations

     Writing all to output data dir ./tmp/Nb_eos_6.00.save/

     init_run     :      0.74s CPU      0.85s WALL (       1 calls)
     electrons    :     12.91s CPU     13.58s WALL (       1 calls)

     Called by init_run:
     wfcinit      :      0.52s CPU      0.54s WALL (       1 calls)
     potinit      :      0.02s CPU      0.03s WALL (       1 calls)
     hinit0       :      0.16s CPU      0.17s WALL (       1 calls)

     Called by electrons:
     c_bands      :     10.20s CPU     10.67s WALL (      10 calls)
     sum_band     :      2.41s CPU      2.56s WALL (      10 calls)
     v_of_rho     :      0.13s CPU      0.14s WALL (      10 calls)
     newd         :      0.19s CPU      0.31s WALL (      10 calls)
     mix_rho      :      0.01s CPU      0.01s WALL (      10 calls)

     Called by c_bands:
     init_us_2    :      0.37s CPU      0.38s WALL (    3045 calls)
     init_us_2:cp :      0.37s CPU      0.38s WALL (    3045 calls)
     cegterg      :      9.64s CPU     10.08s WALL (    1450 calls)

     Called by *egterg:
     cdiaghg      :      0.28s CPU      0.29s WALL (    4396 calls)
     h_psi        :      8.40s CPU      8.73s WALL (    4686 calls)
     s_psi        :      0.23s CPU      0.24s WALL (    4686 calls)
     g_psi        :      0.03s CPU      0.04s WALL (    3091 calls)

     Called by h_psi:
     h_psi:calbec :      0.26s CPU      0.27s WALL (    4686 calls)
     vloc_psi     :      7.88s CPU      8.19s WALL (    4686 calls)
     add_vuspsi   :      0.23s CPU      0.24s WALL (    4686 calls)

     General routines
     calbec       :      0.36s CPU      0.38s WALL (    6136 calls)
     fft          :      0.06s CPU      0.07s WALL (     129 calls)
     ffts         :      0.00s CPU      0.01s WALL (      20 calls)
     fftw         :      7.81s CPU      8.11s WALL (   93092 calls)
     interpolate  :      0.01s CPU      0.01s WALL (      10 calls)


     PWSCF        :     13.72s CPU     14.55s WALL


   This run was terminated on:  23:14:14   6Mar2026            

=------------------------------------------------------------------------------=
   JOB DONE.
=------------------------------------------------------------------------------=
Note: The following floating-point exceptions are signalling: IEEE_INVALID_FLAG IEEE_DIVIDE_BY_ZERO IEEE_UNDERFLOW_FLAG

     total cpu time spent up to now is       14.6 secs

     End of self-consistent calculation

     Number of k-points >= 100: set verbosity='high' to print the bands.

     the Fermi energy is    20.5971 ev

!    total energy              =    -117.92143496 Ry
     estimated scf accuracy    <          1.8E-11 Ry
     smearing contrib. (-TS)   =      -0.00018938 Ry
     internal energy E=F+TS    =    -117.92124558 Ry

     The total energy is F=E-TS. E is the sum of the following terms:
     one-electron contribution =     -10.33979316 Ry
     hartree contribution      =      13.51342577 Ry
     xc contribution           =     -18.58980269 Ry
     ewald contribution        =    -102.50507549 Ry

     convergence has been achieved in   9 iterations

     Writing all to output data dir ./tmp/Nb_eos_6.00.save/

     init_run     :      0.76s CPU      0.88s WALL (       1 calls)
     electrons    :     12.95s CPU     13.64s WALL (       1 calls)

     Called by init_run:
     wfcinit      :      0.54s CPU      0.57s WALL (       1 calls)
     potinit      :      0.02s CPU      0.02s WALL (       1 calls)
     hinit0       :      0.16s CPU      0.17s WALL (       1 calls)

     Called by electrons:
     c_bands      :     10.33s CPU     10.86s WALL (      10 calls)
     sum_band     :      2.32s CPU      2.42s WALL (      10 calls)
     v_of_rho     :      0.12s CPU      0.14s WALL (      10 calls)
     newd         :      0.19s CPU      0.31s WALL (      10 calls)
     mix_rho      :      0.01s CPU      0.01s WALL (      10 calls)

     Called by c_bands:
     init_us_2    :      0.36s CPU      0.37s WALL (    3045 calls)
     init_us_2:cp :      0.36s CPU      0.37s WALL (    3045 calls)
     cegterg      :      9.78s CPU     10.28s WALL (    1450 calls)

     Called by *egterg:
     cdiaghg      :      0.28s CPU      0.30s WALL (    4396 calls)
     h_psi        :      8.54s CPU      8.94s WALL (    4686 calls)
     s_psi        :      0.23s CPU      0.24s WALL (    4686 calls)
     g_psi        :      0.04s CPU      0.04s WALL (    3091 calls)

     Called by h_psi:
     h_psi:calbec :      0.26s CPU      0.27s WALL (    4686 calls)
     vloc_psi     :      8.02s CPU      8.39s WALL (    4686 calls)
     add_vuspsi   :      0.23s CPU      0.24s WALL (    4686 calls)

     General routines
     calbec       :      0.36s CPU      0.37s WALL (    6136 calls)
     fft          :      0.06s CPU      0.07s WALL (     129 calls)
     ffts         :      0.00s CPU      0.00s WALL (      20 calls)
     fftw         :      7.91s CPU      8.24s WALL (   93092 calls)
     interpolate  :      0.01s CPU      0.01s WALL (      10 calls)


     PWSCF        :     13.77s CPU     14.63s WALL


   This run was terminated on:  23:14:14   6Mar2026            

=------------------------------------------------------------------------------=
   JOB DONE.
=------------------------------------------------------------------------------=
Note: The following floating-point exceptions are signalling: IEEE_INVALID_FLAG IEEE_DIVIDE_BY_ZERO IEEE_UNDERFLOW_FLAG

     total cpu time spent up to now is       14.7 secs

     End of self-consistent calculation

     Number of k-points >= 100: set verbosity='high' to print the bands.

     the Fermi energy is    20.5971 ev

!    total energy              =    -117.92143496 Ry
     estimated scf accuracy    <          1.8E-11 Ry
     smearing contrib. (-TS)   =      -0.00018938 Ry
     internal energy E=F+TS    =    -117.92124558 Ry

     The total energy is F=E-TS. E is the sum of the following terms:
     one-electron contribution =     -10.33979316 Ry
     hartree contribution      =      13.51342577 Ry
     xc contribution           =     -18.58980269 Ry
     ewald contribution        =    -102.50507549 Ry

     convergence has been achieved in   9 iterations

     Writing all to output data dir ./tmp/Nb_eos_6.00.save/

     init_run     :      0.76s CPU      0.87s WALL (       1 calls)
     electrons    :     12.91s CPU     13.73s WALL (       1 calls)

     Called by init_run:
     wfcinit      :      0.53s CPU      0.54s WALL (       1 calls)
     potinit      :      0.02s CPU      0.03s WALL (       1 calls)
     hinit0       :      0.18s CPU      0.19s WALL (       1 calls)

     Called by electrons:
     c_bands      :     10.30s CPU     10.92s WALL (      10 calls)
     sum_band     :      2.31s CPU      2.46s WALL (      10 calls)
     v_of_rho     :      0.13s CPU      0.15s WALL (      10 calls)
     newd         :      0.19s CPU      0.30s WALL (      10 calls)
     mix_rho      :      0.01s CPU      0.01s WALL (      10 calls)

     Called by c_bands:
     init_us_2    :      0.36s CPU      0.38s WALL (    3045 calls)
     init_us_2:cp :      0.36s CPU      0.38s WALL (    3045 calls)
     cegterg      :      9.75s CPU     10.32s WALL (    1450 calls)

     Called by *egterg:
     cdiaghg      :      0.28s CPU      0.30s WALL (    4396 calls)
     h_psi        :      8.49s CPU      8.92s WALL (    4686 calls)
     s_psi        :      0.23s CPU      0.24s WALL (    4686 calls)
     g_psi        :      0.04s CPU      0.04s WALL (    3091 calls)

     Called by h_psi:
     h_psi:calbec :      0.26s CPU      0.27s WALL (    4686 calls)
     vloc_psi     :      7.96s CPU      8.36s WALL (    4686 calls)
     add_vuspsi   :      0.23s CPU      0.24s WALL (    4686 calls)

     General routines
     calbec       :      0.36s CPU      0.38s WALL (    6136 calls)
     fft          :      0.06s CPU      0.07s WALL (     129 calls)
     ffts         :      0.00s CPU      0.00s WALL (      20 calls)
     fftw         :      7.82s CPU      8.20s WALL (   93092 calls)
     interpolate  :      0.01s CPU      0.01s WALL (      10 calls)


     PWSCF        :     13.74s CPU     14.71s WALL


   This run was terminated on:  23:14:14   6Mar2026            

=------------------------------------------------------------------------------=
   JOB DONE.
=------------------------------------------------------------------------------=
Note: The following floating-point exceptions are signalling: IEEE_INVALID_FLAG IEEE_DIVIDE_BY_ZERO IEEE_UNDERFLOW_FLAG
