
     Program PWSCF v.7.2 starts on  6Mar2026 at 23:17:56 

     This program is part of the open-source Quantum ESPRESSO suite
     for quantum simulation of materials; please cite
         "P. Giannozzi et al., J. Phys.:Condens. Matter 21 395502 (2009);
         "P. Giannozzi et al., J. Phys.:Condens. Matter 29 465901 (2017);
         "P. Giannozzi et al., J. Chem. Phys. 152 154105 (2020);
          URL http://www.quantum-espresso.org", 
     in publications or presentations arising from this work. More details at
     http://www.quantum-espresso.org/quote

     Serial multi-threaded version, running on    1 processor cores
     0 MiB available memory on the printing compute node when the environment starts

     Reading input from results/eos/Nb_eos_6.50.in

     Program PWSCF v.7.2 starts on  6Mar2026 at 23:17:56 

     This program is part of the open-source Quantum ESPRESSO suite
     for quantum simulation of materials; please cite
         "P. Giannozzi et al., J. Phys.:Condens. Matter 21 395502 (2009);
         "P. Giannozzi et al., J. Phys.:Condens. Matter 29 465901 (2017);
         "P. Giannozzi et al., J. Chem. Phys. 152 154105 (2020);
          URL http://www.quantum-espresso.org", 
     in publications or presentations arising from this work. More details at
     http://www.quantum-espresso.org/quote

     Serial multi-threaded version, running on    1 processor cores
     0 MiB available memory on the printing compute node when the environment starts

     Reading input from results/eos/Nb_eos_6.50.in

     Program PWSCF v.7.2 starts on  6Mar2026 at 23:17:56 

     This program is part of the open-source Quantum ESPRESSO suite
     for quantum simulation of materials; please cite
         "P. Giannozzi et al., J. Phys.:Condens. Matter 21 395502 (2009);
         "P. Giannozzi et al., J. Phys.:Condens. Matter 29 465901 (2017);
         "P. Giannozzi et al., J. Chem. Phys. 152 154105 (2020);
          URL http://www.quantum-espresso.org", 
     in publications or presentations arising from this work. More details at
     http://www.quantum-espresso.org/quote

     Serial multi-threaded version, running on    1 processor cores
     0 MiB available memory on the printing compute node when the environment starts

     Reading input from results/eos/Nb_eos_6.50.in

     Program PWSCF v.7.2 starts on  6Mar2026 at 23:17:56 

     This program is part of the open-source Quantum ESPRESSO suite
     for quantum simulation of materials; please cite
         "P. Giannozzi et al., J. Phys.:Condens. Matter 21 395502 (2009);
         "P. Giannozzi et al., J. Phys.:Condens. Matter 29 465901 (2017);
         "P. Giannozzi et al., J. Chem. Phys. 152 154105 (2020);
          URL http://www.quantum-espresso.org", 
     in publications or presentations arising from this work. More details at
     http://www.quantum-espresso.org/quote

     Serial multi-threaded version, running on    1 processor cores
     0 MiB available memory on the printing compute node when the environment starts

     Reading input from results/eos/Nb_eos_6.50.in

     Program PWSCF v.7.2 starts on  6Mar2026 at 23:17:56 

     This program is part of the open-source Quantum ESPRESSO suite
     for quantum simulation of materials; please cite
         "P. Giannozzi et al., J. Phys.:Condens. Matter 21 395502 (2009);
         "P. Giannozzi et al., J. Phys.:Condens. Matter 29 465901 (2017);
         "P. Giannozzi et al., J. Chem. Phys. 152 154105 (2020);
          URL http://www.quantum-espresso.org", 
     in publications or presentations arising from this work. More details at
     http://www.quantum-espresso.org/quote

     Serial multi-threaded version, running on    1 processor cores
     0 MiB available memory on the printing compute node when the environment starts


     Current dimensions of program PWSCF are:
     Max number of different atomic species (ntypx) = 10
     Max number of k-points (npk) =  40000
     Max angular momentum in pseudopotentials (lmaxx) =  4

     Program PWSCF v.7.2 starts on  6Mar2026 at 23:17:56 

     This program is part of the open-source Quantum ESPRESSO suite
     for quantum simulation of materials; please cite
         "P. Giannozzi et al., J. Phys.:Condens. Matter 21 395502 (2009);
         "P. Giannozzi et al., J. Phys.:Condens. Matter 29 465901 (2017);
         "P. Giannozzi et al., J. Chem. Phys. 152 154105 (2020);
          URL http://www.quantum-espresso.org", 
     in publications or presentations arising from this work. More details at
     http://www.quantum-espresso.org/quote

     Serial multi-threaded version, running on    1 processor cores
     0 MiB available memory on the printing compute node when the environment starts

     Reading input from results/eos/Nb_eos_6.50.in
     Reading input from results/eos/Nb_eos_6.50.in

     Current dimensions of program PWSCF are:
     Max number of different atomic species (ntypx) = 10
     Max number of k-points (npk) =  40000
     Max angular momentum in pseudopotentials (lmaxx) =  4

     Current dimensions of program PWSCF are:
     Max number of different atomic species (ntypx) = 10
     Max number of k-points (npk) =  40000
     Max angular momentum in pseudopotentials (lmaxx) =  4

     Current dimensions of program PWSCF are:
     Max number of different atomic species (ntypx) = 10
     Max number of k-points (npk) =  40000
     Max angular momentum in pseudopotentials (lmaxx) =  4

     Current dimensions of program PWSCF are:
     Max number of different atomic species (ntypx) = 10
     Max number of k-points (npk) =  40000
     Max angular momentum in pseudopotentials (lmaxx) =  4

     Current dimensions of program PWSCF are:
     Max number of different atomic species (ntypx) = 10
     Max number of k-points (npk) =  40000
     Max angular momentum in pseudopotentials (lmaxx) =  4


     G-vector sticks info
     --------------------
     sticks:   dense  smooth     PW     G-vecs:    dense   smooth      PW
     Sum        1335     657    205                30765    10833    1865

     Using Slab Decomposition



     bravais-lattice index     =            3
     lattice parameter (alat)  =       6.5000  a.u.

     unit-cell volume          =     137.3125 (a.u.)^3
     number of atoms/cell      =            1
     number of atomic types    =            1
     number of electrons       =        13.00
     number of Kohn-Sham states=           11
     kinetic-energy cutoff     =      70.0000  Ry
     charge density cutoff     =     560.0000  Ry
     scf convergence threshold =      1.0E-10
     mixing beta               =       0.4000
     number of iterations used =            8  plain     mixing
     Exchange-correlation= SLA  PW   PBE  PBE
                           (   1   4   3   4   0   0   0)

     celldm(1)=   6.500000  celldm(2)=   0.000000  celldm(3)=   0.000000
     celldm(4)=   0.000000  celldm(5)=   0.000000  celldm(6)=   0.000000

     crystal axes: (cart. coord. in units of alat)
               a(1) = (   0.500000   0.500000   0.500000 )  
               a(2) = (  -0.500000   0.500000   0.500000 )  
               a(3) = (  -0.500000  -0.500000   0.500000 )  

     reciprocal axes: (cart. coord. in units 2 pi/alat)
               b(1) = (  1.000000  0.000000  1.000000 )  
               b(2) = ( -1.000000  1.000000  0.000000 )  
               b(3) = (  0.000000 -1.000000  1.000000 )  


     PseudoPot. # 1 for Nb read from file:
     ./pseudo/nb_pbe_v1.uspp.F.UPF
     MD5 check sum: 573aab8a2fa660278ed4a62cd769473f
     Pseudo is Ultrasoft + core correction, Zval = 13.0
     Generated by new atomic code, or converted to UPF format
     Using radial grid of  887 points,  6 beta functions with: 
                l(1) =   0
                l(2) =   0
                l(3) =   1
                l(4) =   1
                l(5) =   2
                l(6) =   2
     Q(r) pseudized with  6 coefficients,  rinner =    1.000   1.000   1.000
                                                       1.000   1.000

     atomic species   valence    mass     pseudopotential
        Nb            13.00    92.90600     Nb( 1.00)

     48 Sym. Ops., with inversion, found



   Cartesian axes

     site n.     atom                  positions (alat units)
         1           Nb  tau(   1) = (   0.0000000   0.0000000   0.0000000  )

     number of k points=   145  Marzari-Vanderbilt smearing, width (Ry)=  0.0300

     Number of k-points >= 100: set verbosity='high' to print them.

     Dense  grid:    30765 G-vectors     FFT dimensions: (  45,  45,  45)

     Smooth grid:    10833 G-vectors     FFT dimensions: (  30,  30,  30)

     Estimated max dynamical RAM per process >     142.23 MB

     G-vector sticks info
     --------------------
     sticks:   dense  smooth     PW     G-vecs:    dense   smooth      PW
     Sum        1335     657    205                30765    10833    1865

     Using Slab Decomposition



     bravais-lattice index     =            3
     lattice parameter (alat)  =       6.5000  a.u.
     unit-cell volume          =     137.3125 (a.u.)^3
     number of atoms/cell      =            1
     number of atomic types    =            1
     number of electrons       =        13.00
     number of Kohn-Sham states=           11
     kinetic-energy cutoff     =      70.0000  Ry
     charge density cutoff     =     560.0000  Ry
     scf convergence threshold =      1.0E-10
     mixing beta               =       0.4000
     number of iterations used =            8  plain     mixing
     Exchange-correlation= SLA  PW   PBE  PBE
                           (   1   4   3   4   0   0   0)

     celldm(1)=   6.500000  celldm(2)=   0.000000  celldm(3)=   0.000000
     celldm(4)=   0.000000  celldm(5)=   0.000000  celldm(6)=   0.000000

     crystal axes: (cart. coord. in units of alat)
               a(1) = (   0.500000   0.500000   0.500000 )  
               a(2) = (  -0.500000   0.500000   0.500000 )  
               a(3) = (  -0.500000  -0.500000   0.500000 )  

     reciprocal axes: (cart. coord. in units 2 pi/alat)
               b(1) = (  1.000000  0.000000  1.000000 )  
               b(2) = ( -1.000000  1.000000  0.000000 )  
               b(3) = (  0.000000 -1.000000  1.000000 )  


     PseudoPot. # 1 for Nb read from file:
     ./pseudo/nb_pbe_v1.uspp.F.UPF
     MD5 check sum: 573aab8a2fa660278ed4a62cd769473f
     Pseudo is Ultrasoft + core correction, Zval = 13.0
     Generated by new atomic code, or converted to UPF format
     Using radial grid of  887 points,  6 beta functions with: 
                l(1) =   0
                l(2) =   0
                l(3) =   1
                l(4) =   1
                l(5) =   2
                l(6) =   2
     Q(r) pseudized with  6 coefficients,  rinner =    1.000   1.000   1.000
                                                       1.000   1.000

     atomic species   valence    mass     pseudopotential
        Nb            13.00    92.90600     Nb( 1.00)

     48 Sym. Ops., with inversion, found



   Cartesian axes

     site n.     atom                  positions (alat units)
         1           Nb  tau(   1) = (   0.0000000   0.0000000   0.0000000  )

     number of k points=   145  Marzari-Vanderbilt smearing, width (Ry)=  0.0300

     Number of k-points >= 100: set verbosity='high' to print them.

     Dense  grid:    30765 G-vectors     FFT dimensions: (  45,  45,  45)

     Smooth grid:    10833 G-vectors     FFT dimensions: (  30,  30,  30)

     Estimated max dynamical RAM per process >     142.23 MB


     G-vector sticks info
     --------------------
     sticks:   dense  smooth     PW     G-vecs:    dense   smooth      PW
     Sum        1335     657    205                30765    10833    1865

     Using Slab Decomposition



     bravais-lattice index     =            3
     lattice parameter (alat)  =       6.5000  a.u.
     unit-cell volume          =     137.3125 (a.u.)^3
     number of atoms/cell      =            1
     number of atomic types    =            1
     number of electrons       =        13.00
     number of Kohn-Sham states=           11
     kinetic-energy cutoff     =      70.0000  Ry
     charge density cutoff     =     560.0000  Ry
     scf convergence threshold =      1.0E-10
     mixing beta               =       0.4000
     number of iterations used =            8  plain     mixing
     Exchange-correlation= SLA  PW   PBE  PBE
                           (   1   4   3   4   0   0   0)

     celldm(1)=   6.500000  celldm(2)=   0.000000  celldm(3)=   0.000000
     celldm(4)=   0.000000  celldm(5)=   0.000000  celldm(6)=   0.000000

     crystal axes: (cart. coord. in units of alat)
               a(1) = (   0.500000   0.500000   0.500000 )  
               a(2) = (  -0.500000   0.500000   0.500000 )  
               a(3) = (  -0.500000  -0.500000   0.500000 )  

     reciprocal axes: (cart. coord. in units 2 pi/alat)
               b(1) = (  1.000000  0.000000  1.000000 )  
               b(2) = ( -1.000000  1.000000  0.000000 )  
               b(3) = (  0.000000 -1.000000  1.000000 )  


     PseudoPot. # 1 for Nb read from file:
     ./pseudo/nb_pbe_v1.uspp.F.UPF
     MD5 check sum: 573aab8a2fa660278ed4a62cd769473f
     Pseudo is Ultrasoft + core correction, Zval = 13.0
     Generated by new atomic code, or converted to UPF format
     Using radial grid of  887 points,  6 beta functions with: 
                l(1) =   0
                l(2) =   0
                l(3) =   1
                l(4) =   1
                l(5) =   2
                l(6) =   2
     Q(r) pseudized with  6 coefficients,  rinner =    1.000   1.000   1.000
                                                       1.000   1.000

     atomic species   valence    mass     pseudopotential
        Nb            13.00    92.90600     Nb( 1.00)

     48 Sym. Ops., with inversion, found



   Cartesian axes

     site n.     atom                  positions (alat units)
         1           Nb  tau(   1) = (   0.0000000   0.0000000   0.0000000  )

     number of k points=   145  Marzari-Vanderbilt smearing, width (Ry)=  0.0300

     Number of k-points >= 100: set verbosity='high' to print them.

     Dense  grid:    30765 G-vectors     FFT dimensions: (  45,  45,  45)

     Smooth grid:    10833 G-vectors     FFT dimensions: (  30,  30,  30)

     Estimated max dynamical RAM per process >     142.23 MB



     G-vector sticks info
     --------------------
     sticks:   dense  smooth     PW     G-vecs:    dense   smooth      PW
     Sum        1335     657    205                30765    10833    1865

     Using Slab Decomposition



     bravais-lattice index     =            3
     lattice parameter (alat)  =       6.5000  a.u.
     unit-cell volume          =     137.3125 (a.u.)^3
     number of atoms/cell      =            1
     number of atomic types    =            1
     number of electrons       =        13.00
     number of Kohn-Sham states=           11
     kinetic-energy cutoff     =      70.0000  Ry
     charge density cutoff     =     560.0000  Ry
     scf convergence threshold =      1.0E-10
     mixing beta               =       0.4000
     number of iterations used =            8  plain     mixing
     Exchange-correlation= SLA  PW   PBE  PBE
                           (   1   4   3   4   0   0   0)

     celldm(1)=   6.500000  celldm(2)=   0.000000  celldm(3)=   0.000000
     celldm(4)=   0.000000  celldm(5)=   0.000000  celldm(6)=   0.000000

     crystal axes: (cart. coord. in units of alat)
               a(1) = (   0.500000   0.500000   0.500000 )  
               a(2) = (  -0.500000   0.500000   0.500000 )  
               a(3) = (  -0.500000  -0.500000   0.500000 )  

     reciprocal axes: (cart. coord. in units 2 pi/alat)
               b(1) = (  1.000000  0.000000  1.000000 )  
               b(2) = ( -1.000000  1.000000  0.000000 )  
               b(3) = (  0.000000 -1.000000  1.000000 )  


     PseudoPot. # 1 for Nb read from file:
     ./pseudo/nb_pbe_v1.uspp.F.UPF
     MD5 check sum: 573aab8a2fa660278ed4a62cd769473f
     Pseudo is Ultrasoft + core correction, Zval = 13.0

     G-vector sticks info
     --------------------
     sticks:   dense  smooth     PW     G-vecs:    dense   smooth      PW
     Sum        1335     657    205                30765    10833    1865

     Using Slab Decomposition



     bravais-lattice index     =            3
     lattice parameter (alat)  =       6.5000  a.u.
     unit-cell volume          =     137.3125 (a.u.)^3
     number of atoms/cell      =            1
     number of atomic types    =            1
     number of electrons       =        13.00
     number of Kohn-Sham states=           11
     kinetic-energy cutoff     =      70.0000  Ry
     charge density cutoff     =     560.0000  Ry
     scf convergence threshold =      1.0E-10
     mixing beta               =       0.4000
     number of iterations used =            8  plain     mixing
     Exchange-correlation= SLA  PW   PBE  PBE
                           (   1   4   3   4   0   0   0)

     celldm(1)=   6.500000  celldm(2)=   0.000000  celldm(3)=   0.000000
     celldm(4)=   0.000000  celldm(5)=   0.000000  celldm(6)=   0.000000

     crystal axes: (cart. coord. in units of alat)
               a(1) = (   0.500000   0.500000   0.500000 )  
               a(2) = (  -0.500000   0.500000   0.500000 )  
               a(3) = (  -0.500000  -0.500000   0.500000 )  

     reciprocal axes: (cart. coord. in units 2 pi/alat)
               b(1) = (  1.000000  0.000000  1.000000 )  
               b(2) = ( -1.000000  1.000000  0.000000 )  
               b(3) = (  0.000000 -1.000000  1.000000 )  


     PseudoPot. # 1 for Nb read from file:
     ./pseudo/nb_pbe_v1.uspp.F.UPF
     MD5 check sum: 573aab8a2fa660278ed4a62cd769473f
     Pseudo is Ultrasoft + core correction, Zval = 13.0
     Generated by new atomic code, or converted to UPF format
     Using radial grid of  887 points,  6 beta functions with: 
                l(1) =   0
                l(2) =   0
                l(3) =   1
                l(4) =   1
                l(5) =   2
                l(6) =   2
     Q(r) pseudized with  6 coefficients,  rinner =    1.000   1.000   1.000
                                                       1.000   1.000

     atomic species   valence    mass     pseudopotential
        Nb            13.00    92.90600     Nb( 1.00)

     48 Sym. Ops., with inversion, found



   Cartesian axes

     site n.     atom                  positions (alat units)
         1           Nb  tau(   1) = (   0.0000000   0.0000000   0.0000000  )

     number of k points=   145  Marzari-Vanderbilt smearing, width (Ry)=  0.0300

     Number of k-points >= 100: set verbosity='high' to print them.

     Dense  grid:    30765 G-vectors     FFT dimensions: (  45,  45,  45)

     Smooth grid:    10833 G-vectors     FFT dimensions: (  30,  30,  30)

     Estimated max dynamical RAM per process >     142.23 MB


     G-vector sticks info
     --------------------
     sticks:   dense  smooth     PW     G-vecs:    dense   smooth      PW
     Sum        1335     657    205                30765    10833    1865

     Using Slab Decomposition



     bravais-lattice index     =            3
     lattice parameter (alat)  =       6.5000  a.u.
     unit-cell volume          =     137.3125 (a.u.)^3
     number of atoms/cell      =            1
     number of atomic types    =            1
     number of electrons       =        13.00
     number of Kohn-Sham states=           11
     kinetic-energy cutoff     =      70.0000  Ry
     charge density cutoff     =     560.0000  Ry
     scf convergence threshold =      1.0E-10
     mixing beta               =       0.4000
     number of iterations used =            8  plain     mixing
     Exchange-correlation= SLA  PW   PBE  PBE
                           (   1   4   3   4   0   0   0)

     celldm(1)=   6.500000  celldm(2)=   0.000000  celldm(3)=   0.000000
     celldm(4)=       Generated by new atomic code, or converted to UPF format
     Using radial grid of  887 points,  6 beta functions with: 
                l(1) =   0
                l(2) =   0
                l(3) =   1
                l(4) =   1
                l(5) =   2
                l(6) =   2
     Q(r) pseudized with  6 coefficients,  rinner =    1.000   1.000   1.000
                                                       1.000   1.000

     atomic species   valence    mass     pseudopotential
        Nb            13.00    92.90600     Nb( 1.00)

     48 Sym. Ops., with inversion, found



   Cartesian axes

     site n.     atom                  positions (alat units)
         1           Nb  tau(   1) = (   0.0000000   0.0000000   0.0000000  )

     number of k points=   145  Marzari-Vanderbilt smearing, width (Ry)=  0.0300

     Number of k-points >= 100: set verbosity='high' to print them.

     Dense  grid:    30765 G-vectors     FFT dimensions: (  45,  45,  45)

     Smooth grid:    10833 G-vectors     FFT d 0.000000  celldm(5)=   0.000000  celldm(6)=   0.000000

     crystal axes: (cart. coord. in units of alat)
               a(1) = (   0.500000   0.500000   0.500000 )  
               a(2) = (  -0.500000   0.500000   0.500000 )  
               a(3) = (  -0.500000  -0.500000   0.500000 )  

     reciprocal axes: (cart. coord. in units 2 pi/alat)
               b(1) = (  1.000000  0.000000  1.000000 )  
               b(2) = ( -1.000000  1.000000  0.000000 )  
               b(3) = (  0.000000 -1.000000  1.000000 )  


     PseudoPot. # 1 for Nb read from file:
imensions: (  30,  30,  30)

     Estimated max dynamical RAM per process >     142.23 MB
     ./pseudo/nb_pbe_v1.uspp.F.UPF
     MD5 check sum: 573aab8a2fa660278ed4a62cd769473f
     Pseudo is Ultrasoft + core correction, Zval = 13.0
     Generated by new atomic code, or converted to UPF format
     Using radial grid of  887 points,  6 beta functions with: 
                l(1) =   0
                l(2) =   0
                l(3) =   1
                l(4) =   1
                l(5) =   2
                l(6) =   2
     Q(r) pseudized with  6 coefficients,  rinner =    1.000   1.000   1.000
                                                       1.000   1.000

     atomic species   valence    mass     pseudopotential
        Nb            13.00    92.90600     Nb( 1.00)

     48 Sym. Ops., with inversion, found



   Cartesian axes

     site n.     atom                  positions (alat units)
         1           Nb  tau(   1) = (   0.0000000   0.0000000   0.0000000  )

     number of k points=   145  Marzari-Vanderbilt smearing, width (Ry)=  0.0300

     Number of k-points >= 100: set verbosity='high' to print them.

     Dense  grid:    30765 G-vectors     FFT dimensions: (  45,  45,  45)

     Smooth grid:    10833 G-vectors     FFT dimensions: (  30,  30,  30)

     Estimated max dynamical RAM per process >     142.23 MB

     Initial potential from superposition of free atoms

     starting charge      12.9973, renormalised to      13.0000

     Initial potential from superposition of free atoms

     starting charge      12.9973, renormalised to      13.0000

     Initial potential from superposition of free atoms

     Initial potential from superposition of free atoms

     starting charge      12.9973, renormalised to      13.0000

     starting charge      12.9973, renormalised to      13.0000

     Initial potential from superposition of free atoms

     starting charge      12.9973, renormalised to      13.0000

     Initial potential from superposition of free atoms

     starting charge      12.9973, renormalised to      13.0000
     Starting wfcs are   13 randomized atomic wfcs
     Starting wfcs are   13 randomized atomic wfcs
     Starting wfcs are   13 randomized atomic wfcs
     Starting wfcs are   13 randomized atomic wfcs
     Starting wfcs are   13 randomized atomic wfcs
     Starting wfcs are   13 randomized atomic wfcs

     total cpu time spent up to now is        1.1 secs

     Self-consistent Calculation

     iteration #  1     ecut=    70.00 Ry     beta= 0.40
     Davidson diagonalization with overlap

     total cpu time spent up to now is        1.2 secs

     Self-consistent Calculation

     iteration #  1     ecut=    70.00 Ry     beta= 0.40
     Davidson diagonalization with overlap

     total cpu time spent up to now is        1.2 secs

     Self-consistent Calculation

     iteration #  1     ecut=    70.00 Ry     beta= 0.40
     Davidson diagonalization with overlap

     total cpu time spent up to now is        1.4 secs

     Self-consistent Calculation

     iteration #  1     ecut=    70.00 Ry     beta= 0.40
     Davidson diagonalization with overlap

     total cpu time spent up to now is        1.4 secs

     Self-consistent Calculation

     iteration #  1     ecut=    70.00 Ry     beta= 0.40
     Davidson diagonalization with overlap

     total cpu time spent up to now is        1.4 secs

     Self-consistent Calculation

     iteration #  1     ecut=    70.00 Ry     beta= 0.40
     Davidson diagonalization with overlap
     ethr =  1.00E-02,  avg # of iterations =  3.1
     ethr =  1.00E-02,  avg # of iterations =  3.1
     ethr =  1.00E-02,  avg # of iterations =  3.1
     ethr =  1.00E-02,  avg # of iterations =  3.1
     ethr =  1.00E-02,  avg # of iterations =  3.1

     Threshold (ethr) on eigenvalues was too large:
     Diagonalizing with lowered threshold

     Davidson diagonalization with overlap

     Threshold (ethr) on eigenvalues was too large:
     Diagonalizing with lowered threshold

     Davidson diagonalization with overlap

     Threshold (ethr) on eigenvalues was too large:
     Diagonalizing with lowered threshold

     Davidson diagonalization with overlap

     Threshold (ethr) on eigenvalues was too large:
     Diagonalizing with lowered threshold

     Davidson diagonalization with overlap

     Threshold (ethr) on eigenvalues was too large:
     Diagonalizing with lowered threshold

     Davidson diagonalization with overlap
     ethr =  1.00E-02,  avg # of iterations =  3.1

     Threshold (ethr) on eigenvalues was too large:
     Diagonalizing with lowered threshold

     Davidson diagonalization with overlap
     ethr =  8.38E-04,  avg # of iterations =  1.1
     ethr =  8.38E-04,  avg # of iterations =  1.1
     ethr =  8.38E-04,  avg # of iterations =  1.1
     ethr =  8.38E-04,  avg # of iterations =  1.1
     ethr =  8.38E-04,  avg # of iterations =  1.1

     total cpu time spent up to now is        5.1 secs

     total energy              =    -117.91617218 Ry
     estimated scf accuracy    <       0.11334781 Ry

     iteration #  2     ecut=    70.00 Ry     beta= 0.40
     Davidson diagonalization with overlap

     total cpu time spent up to now is        5.2 secs

     total energy              =    -117.91617218 Ry
     estimated scf accuracy    <       0.11334781 Ry

     iteration #  2     ecut=    70.00 Ry     beta= 0.40
     Davidson diagonalization with overlap

     total cpu time spent up to now is        5.3 secs

     total energy              =    -117.91617218 Ry
     estimated scf accuracy    <       0.11334781 Ry

     iteration #  2     ecut=    70.00 Ry     beta= 0.40
     Davidson diagonalization with overlap

     total cpu time spent up to now is        5.4 secs

     total energy              =    -117.91617218 Ry
     estimated scf accuracy    <       0.11334781 Ry

     iteration #  2     ecut=    70.00 Ry     beta= 0.40
     Davidson diagonalization with overlap
     ethr =  8.38E-04,  avg # of iterations =  1.1

     total cpu time spent up to now is        5.5 secs

     total energy              =    -117.91617218 Ry
     estimated scf accuracy    <       0.11334781 Ry

     iteration #  2     ecut=    70.00 Ry     beta= 0.40
     Davidson diagonalization with overlap

     total cpu time spent up to now is        5.8 secs

     total energy              =    -117.91617218 Ry
     estimated scf accuracy    <       0.11334781 Ry

     iteration #  2     ecut=    70.00 Ry     beta= 0.40
     Davidson diagonalization with overlap
     ethr =  8.72E-04,  avg # of iterations =  1.9
     ethr =  8.72E-04,  avg # of iterations =  1.9
     ethr =  8.72E-04,  avg # of iterations =  1.9
     ethr =  8.72E-04,  avg # of iterations =  1.9
     ethr =  8.72E-04,  avg # of iterations =  1.9

     total cpu time spent up to now is        7.3 secs

     total energy              =    -117.92163639 Ry
     estimated scf accuracy    <       0.01259948 Ry

     iteration #  3     ecut=    70.00 Ry     beta= 0.40
     Davidson diagonalization with overlap

     total cpu time spent up to now is        7.3 secs

     total energy              =    -117.92163639 Ry
     estimated scf accuracy    <       0.01259948 Ry

     iteration #  3     ecut=    70.00 Ry     beta= 0.40
     Davidson diagonalization with overlap

     total cpu time spent up to now is        7.4 secs

     total energy              =    -117.92163639 Ry
     estimated scf accuracy    <       0.01259948 Ry

     iteration #  3     ecut=    70.00 Ry     beta= 0.40
     Davidson diagonalization with overlap
     ethr =  8.72E-04,  avg # of iterations =  1.9

     total cpu time spent up to now is        7.6 secs

     total energy              =    -117.92163639 Ry
     estimated scf accuracy    <       0.01259948 Ry

     iteration #  3     ecut=    70.00 Ry     beta= 0.40
     Davidson diagonalization with overlap

     total cpu time spent up to now is        7.6 secs

     total energy              =    -117.92163639 Ry
     estimated scf accuracy    <       0.01259948 Ry

     iteration #  3     ecut=    70.00 Ry     beta= 0.40
     Davidson diagonalization with overlap

     total cpu time spent up to now is        8.0 secs

     total energy              =    -117.92163639 Ry
     estimated scf accuracy    <       0.01259948 Ry

     iteration #  3     ecut=    70.00 Ry     beta= 0.40
     Davidson diagonalization with overlap
     ethr =  9.69E-05,  avg # of iterations =  2.3
     ethr =  9.69E-05,  avg # of iterations =  2.3
     ethr =  9.69E-05,  avg # of iterations =  2.3
     ethr =  9.69E-05,  avg # of iterations =  2.3
     ethr =  9.69E-05,  avg # of iterations =  2.3

     total cpu time spent up to now is        9.4 secs

     total energy              =    -117.92391144 Ry
     estimated scf accuracy    <       0.00080775 Ry

     iteration #  4     ecut=    70.00 Ry     beta= 0.40
     Davidson diagonalization with overlap

     total cpu time spent up to now is        9.5 secs

     total energy              =    -117.92391144 Ry
     estimated scf accuracy    <       0.00080775 Ry

     iteration #  4     ecut=    70.00 Ry     beta= 0.40
     Davidson diagonalization with overlap
     ethr =  9.69E-05,  avg # of iterations =  2.3

     total cpu time spent up to now is        9.6 secs

     total energy              =    -117.92391144 Ry
     estimated scf accuracy    <       0.00080775 Ry

     iteration #  4     ecut=    70.00 Ry     beta= 0.40
     Davidson diagonalization with overlap

     total cpu time spent up to now is        9.7 secs

     total energy              =    -117.92391144 Ry
     estimated scf accuracy    <       0.00080775 Ry

     iteration #  4     ecut=    70.00 Ry     beta= 0.40
     Davidson diagonalization with overlap

     total cpu time spent up to now is        9.7 secs

     total energy              =    -117.92391144 Ry
     estimated scf accuracy    <       0.00080775 Ry

     iteration #  4     ecut=    70.00 Ry     beta= 0.40
     Davidson diagonalization with overlap

     total cpu time spent up to now is       10.0 secs

     total energy              =    -117.92391144 Ry
     estimated scf accuracy    <       0.00080775 Ry

     iteration #  4     ecut=    70.00 Ry     beta= 0.40
     Davidson diagonalization with overlap
     ethr =  6.21E-06,  avg # of iterations =  3.0
     ethr =  6.21E-06,  avg # of iterations =  3.0
     ethr =  6.21E-06,  avg # of iterations =  3.0
     ethr =  6.21E-06,  avg # of iterations =  3.0
     ethr =  6.21E-06,  avg # of iterations =  3.0

     total cpu time spent up to now is       11.7 secs

     total energy              =    -117.92397367 Ry
     estimated scf accuracy    <       0.00012507 Ry

     iteration #  5     ecut=    70.00 Ry     beta= 0.40
     Davidson diagonalization with overlap

     total cpu time spent up to now is       11.8 secs

     total energy              =    -117.92397367 Ry
     estimated scf accuracy    <       0.00012507 Ry

     iteration #  5     ecut=    70.00 Ry     beta= 0.40
     Davidson diagonalization with overlap
     ethr =  6.21E-06,  avg # of iterations =  3.0

     total cpu time spent up to now is       11.9 secs

     total energy              =    -117.92397367 Ry
     estimated scf accuracy    <       0.00012507 Ry

     iteration #  5     ecut=    70.00 Ry     beta= 0.40
     Davidson diagonalization with overlap

     total cpu time spent up to now is       12.0 secs

     total energy              =    -117.92397367 Ry
     estimated scf accuracy    <       0.00012507 Ry

     iteration #  5     ecut=    70.00 Ry     beta= 0.40
     Davidson diagonalization with overlap

     total cpu time spent up to now is       12.0 secs

     total energy              =    -117.92397367 Ry
     estimated scf accuracy    <       0.00012507 Ry

     iteration #  5     ecut=    70.00 Ry     beta= 0.40
     Davidson diagonalization with overlap

     total cpu time spent up to now is       12.3 secs

     total energy              =    -117.92397367 Ry
     estimated scf accuracy    <       0.00012507 Ry

     iteration #  5     ecut=    70.00 Ry     beta= 0.40
     Davidson diagonalization with overlap
     ethr =  9.62E-07,  avg # of iterations =  2.6
     ethr =  9.62E-07,  avg # of iterations =  2.6
     ethr =  9.62E-07,  avg # of iterations =  2.6
     ethr =  9.62E-07,  avg # of iterations =  2.6
     ethr =  9.62E-07,  avg # of iterations =  2.6

     total cpu time spent up to now is       14.1 secs

     total energy              =    -117.92400710 Ry
     estimated scf accuracy    <       0.00003008 Ry

     iteration #  6     ecut=    70.00 Ry     beta= 0.40
     Davidson diagonalization with overlap

     total cpu time spent up to now is       14.1 secs

     total energy              =    -117.92400710 Ry
     estimated scf accuracy    <       0.00003008 Ry

     iteration #  6     ecut=    70.00 Ry     beta= 0.40
     Davidson diagonalization with overlap
     ethr =  9.62E-07,  avg # of iterations =  2.6

     total cpu time spent up to now is       14.2 secs

     total energy              =    -117.92400710 Ry
     estimated scf accuracy    <       0.00003008 Ry

     iteration #  6     ecut=    70.00 Ry     beta= 0.40
     Davidson diagonalization with overlap

     total cpu time spent up to now is       14.2 secs

     total energy              =    -117.92400710 Ry
     estimated scf accuracy    <       0.00003008 Ry

     iteration #  6     ecut=    70.00 Ry     beta= 0.40
     Davidson diagonalization with overlap

     total cpu time spent up to now is       14.4 secs

     total energy              =    -117.92400710 Ry
     estimated scf accuracy    <       0.00003008 Ry

     iteration #  6     ecut=    70.00 Ry     beta= 0.40
     Davidson diagonalization with overlap

     total cpu time spent up to now is       14.7 secs

     total energy              =    -117.92400710 Ry
     estimated scf accuracy    <       0.00003008 Ry

     iteration #  6     ecut=    70.00 Ry     beta= 0.40
     Davidson diagonalization with overlap
     ethr =  2.31E-07,  avg # of iterations =  2.0
     ethr =  2.31E-07,  avg # of iterations =  2.0
     ethr =  2.31E-07,  avg # of iterations =  2.0
     ethr =  2.31E-07,  avg # of iterations =  2.0
     ethr =  2.31E-07,  avg # of iterations =  2.0

     total cpu time spent up to now is       16.3 secs

     total energy              =    -117.92401189 Ry
     estimated scf accuracy    <       0.00000003 Ry

     iteration #  7     ecut=    70.00 Ry     beta= 0.40
     Davidson diagonalization with overlap

     total cpu time spent up to now is       16.4 secs

     total energy              =    -117.92401189 Ry
     estimated scf accuracy    <       0.00000003 Ry

     iteration #  7     ecut=    70.00 Ry     beta= 0.40
     Davidson diagonalization with overlap

     total cpu time spent up to now is       16.5 secs

     total energy              =    -117.92401189 Ry
     estimated scf accuracy    <       0.00000003 Ry

     iteration #  7     ecut=    70.00 Ry     beta= 0.40
     Davidson diagonalization with overlap

     total cpu time spent up to now is       16.5 secs

     total energy              =    -117.92401189 Ry
     estimated scf accuracy    <       0.00000003 Ry

     iteration #  7     ecut=    70.00 Ry     beta= 0.40
     Davidson diagonalization with overlap
     ethr =  2.31E-07,  avg # of iterations =  2.0

     total cpu time spent up to now is       16.7 secs

     total energy              =    -117.92401189 Ry
     estimated scf accuracy    <       0.00000003 Ry

     iteration #  7     ecut=    70.00 Ry     beta= 0.40
     Davidson diagonalization with overlap

     total cpu time spent up to now is       17.0 secs

     total energy              =    -117.92401189 Ry
     estimated scf accuracy    <       0.00000003 Ry

     iteration #  7     ecut=    70.00 Ry     beta= 0.40
     Davidson diagonalization with overlap
     ethr =  2.00E-10,  avg # of iterations =  3.5
     ethr =  2.00E-10,  avg # of iterations =  3.5
     ethr =  2.00E-10,  avg # of iterations =  3.5
     ethr =  2.00E-10,  avg # of iterations =  3.5
     ethr =  2.00E-10,  avg # of iterations =  3.5

     total cpu time spent up to now is       18.9 secs

     total energy              =    -117.92401194 Ry
     estimated scf accuracy    <          9.0E-09 Ry

     iteration #  8     ecut=    70.00 Ry     beta= 0.40
     Davidson diagonalization with overlap

     total cpu time spent up to now is       18.9 secs

     total energy              =    -117.92401194 Ry
     estimated scf accuracy    <          9.0E-09 Ry

     iteration #  8     ecut=    70.00 Ry     beta= 0.40
     Davidson diagonalization with overlap

     total cpu time spent up to now is       18.9 secs

     total energy              =    -117.92401194 Ry
     estimated scf accuracy    <          9.0E-09 Ry

     iteration #  8     ecut=    70.00 Ry     beta= 0.40
     Davidson diagonalization with overlap

     total cpu time spent up to now is       19.2 secs

     total energy              =    -117.92401194 Ry
     estimated scf accuracy    <          9.0E-09 Ry

     iteration #  8     ecut=    70.00 Ry     beta= 0.40
     Davidson diagonalization with overlap

     total cpu time spent up to now is       19.2 secs

     total energy              =    -117.92401194 Ry
     estimated scf accuracy    <          9.0E-09 Ry

     iteration #  8     ecut=    70.00 Ry     beta= 0.40
     Davidson diagonalization with overlap
     ethr =  2.00E-10,  avg # of iterations =  3.5

     total cpu time spent up to now is       19.8 secs

     total energy              =    -117.92401194 Ry
     estimated scf accuracy    <          9.0E-09 Ry

     iteration #  8     ecut=    70.00 Ry     beta= 0.40
     Davidson diagonalization with overlap
     ethr =  6.90E-11,  avg # of iterations =  1.0
     ethr =  6.90E-11,  avg # of iterations =  1.0
     ethr =  6.90E-11,  avg # of iterations =  1.0
     ethr =  6.90E-11,  avg # of iterations =  1.0
     ethr =  6.90E-11,  avg # of iterations =  1.0

     total cpu time spent up to now is       20.7 secs

     total energy              =    -117.92401194 Ry
     estimated scf accuracy    <          3.6E-10 Ry

     iteration #  9     ecut=    70.00 Ry     beta= 0.40
     Davidson diagonalization with overlap

     total cpu time spent up to now is       20.9 secs

     total energy              =    -117.92401194 Ry
     estimated scf accuracy    <          3.6E-10 Ry

     iteration #  9     ecut=    70.00 Ry     beta= 0.40
     Davidson diagonalization with overlap

     total cpu time spent up to now is       20.9 secs

     total energy              =    -117.92401194 Ry
     estimated scf accuracy    <          3.6E-10 Ry

     iteration #  9     ecut=    70.00 Ry     beta= 0.40
     Davidson diagonalization with overlap

     total cpu time spent up to now is       20.9 secs

     total energy              =    -117.92401194 Ry
     estimated scf accuracy    <          3.6E-10 Ry

     iteration #  9     ecut=    70.00 Ry     beta= 0.40
     Davidson diagonalization with overlap

     total cpu time spent up to now is       21.1 secs

     total energy              =    -117.92401194 Ry
     estimated scf accuracy    <          3.6E-10 Ry

     iteration #  9     ecut=    70.00 Ry     beta= 0.40
     Davidson diagonalization with overlap
     ethr =  6.90E-11,  avg # of iterations =  1.0

     total cpu time spent up to now is       21.7 secs

     total energy              =    -117.92401194 Ry
     estimated scf accuracy    <          3.6E-10 Ry

     iteration #  9     ecut=    70.00 Ry     beta= 0.40
     Davidson diagonalization with overlap
     ethr =  2.75E-12,  avg # of iterations =  2.6
     ethr =  2.75E-12,  avg # of iterations =  2.6
     ethr =  2.75E-12,  avg # of iterations =  2.6
     ethr =  2.75E-12,  avg # of iterations =  2.6

     total cpu time spent up to now is       23.0 secs

     total energy              =    -117.92401194 Ry
     estimated scf accuracy    <          6.6E-10 Ry

     iteration # 10     ecut=    70.00 Ry     beta= 0.40
     Davidson diagonalization with overlap
     ethr =  2.75E-12,  avg # of iterations =  2.6

     total cpu time spent up to now is       23.2 secs

     total energy              =    -117.92401194 Ry
     estimated scf accuracy    <          6.6E-10 Ry

     iteration # 10     ecut=    70.00 Ry     beta= 0.40
     Davidson diagonalization with overlap

     total cpu time spent up to now is       23.3 secs

     total energy              =    -117.92401194 Ry
     estimated scf accuracy    <          6.6E-10 Ry

     iteration # 10     ecut=    70.00 Ry     beta= 0.40
     Davidson diagonalization with overlap

     total cpu time spent up to now is       23.3 secs

     total energy              =    -117.92401194 Ry
     estimated scf accuracy    <          6.6E-10 Ry

     iteration # 10     ecut=    70.00 Ry     beta= 0.40
     Davidson diagonalization with overlap

     total cpu time spent up to now is       23.4 secs

     total energy              =    -117.92401194 Ry
     estimated scf accuracy    <          6.6E-10 Ry

     iteration # 10     ecut=    70.00 Ry     beta= 0.40
     Davidson diagonalization with overlap
     ethr =  2.75E-12,  avg # of iterations =  2.6

     total cpu time spent up to now is       24.3 secs

     total energy              =    -117.92401194 Ry
     estimated scf accuracy    <          6.6E-10 Ry

     iteration # 10     ecut=    70.00 Ry     beta= 0.40
     Davidson diagonalization with overlap
     ethr =  2.75E-12,  avg # of iterations =  2.0
     ethr =  2.75E-12,  avg # of iterations =  2.0

     total cpu time spent up to now is       24.9 secs

     End of self-consistent calculation

     Number of k-points >= 100: set verbosity='high' to print the bands.

     the Fermi energy is    15.5990 ev

!    total energy              =    -117.92401194 Ry
     estimated scf accuracy    <          9.3E-11 Ry
     smearing contrib. (-TS)   =       0.00018344 Ry
     internal energy E=F+TS    =    -117.92419539 Ry

     The total energy is F=E-TS. E is the sum of the following terms:
     one-electron contribution =     -21.43020652 Ry
     hartree contribution      =      16.44136636 Ry
     xc contribution           =     -18.31528553 Ry
     ewald contribution        =     -94.62006969 Ry

     convergence has been achieved in  10 iterations

     Writing all to output data dir ./tmp/Nb_eos_6.50.save/
     ethr =  2.75E-12,  avg # of iterations =  2.0

     init_run     :      1.04s CPU      1.09s WALL (       1 calls)
     electrons    :     22.51s CPU     23.75s WALL (       1 calls)

     Called by init_run:
     wfcinit      :      0.81s CPU      0.84s WALL (       1 calls)
     potinit      :      0.02s CPU      0.02s WALL (       1 calls)
     hinit0       :      0.16s CPU      0.17s WALL (       1 calls)

     Called by electrons:
     c_bands      :     18.00s CPU     18.87s WALL (      11 calls)
     sum_band     :      4.05s CPU      4.27s WALL (      11 calls)
     v_of_rho     :      0.20s CPU      0.25s WALL (      11 calls)
     newd         :      0.26s CPU      0.36s WALL (      11 calls)
     mix_rho      :      0.02s CPU      0.02s WALL (      11 calls)

     Called by c_bands:
     init_us_2    :      0.50s CPU      0.52s WALL (    3335 calls)
     init_us_2:cp :      0.50s CPU      0.52s WALL (    3335 calls)
     cegterg      :     17.23s CPU     18.07s WALL (    1595 calls)

     Called by *egterg:
     cdiaghg      :      0.32s CPU      0.33s WALL (    5092 calls)
     h_psi        :     15.58s CPU     16.26s WALL (    5382 calls)
     s_psi        :      0.32s CPU      0.34s WALL (    5382 calls)
     g_psi        :      0.05s CPU      0.05s WALL (    3642 calls)

     Called by h_psi:
     h_psi:calbec :      0.37s CPU      0.39s WALL (    5382 calls)
     vloc_psi     :     14.84s CPU     15.47s WALL (    5382 calls)
     add_vuspsi   :      0.32s CPU      0.34s WALL (    5382 calls)

     General routines
     calbec       :      0.51s CPU      0.53s WALL (    6977 calls)
     fft          :      0.11s CPU      0.14s WALL (     142 calls)
     ffts         :      0.01s CPU      0.01s WALL (      22 calls)
     fftw         :     15.20s CPU     15.82s WALL (  104083 calls)
     interpolate  :      0.02s CPU      0.02s WALL (      11 calls)


     PWSCF        :     23.62s CPU     24.94s WALL


   This run was terminated on:  23:18:21   6Mar2026            

=------------------------------------------------------------------------------=
   JOB DONE.
=------------------------------------------------------------------------------=
Note: The following floating-point exceptions are signalling: IEEE_INVALID_FLAG IEEE_DIVIDE_BY_ZERO IEEE_UNDERFLOW_FLAG
     ethr =  2.75E-12,  avg # of iterations =  2.0
     ethr =  2.75E-12,  avg # of iterations =  2.0

     total cpu time spent up to now is       25.2 secs

     End of self-consistent calculation

     Number of k-points >= 100: set verbosity='high' to print the bands.

     the Fermi energy is    15.5990 ev

!    total energy              =    -117.92401194 Ry
     estimated scf accuracy    <          9.3E-11 Ry
     smearing contrib. (-TS)   =       0.00018344 Ry
     internal energy E=F+TS    =    -117.92419539 Ry

     The total energy is F=E-TS. E is the sum of the following terms:
     one-electron contribution =     -21.43020652 Ry
     hartree contribution      =      16.44136636 Ry
     xc contribution           =     -18.31528553 Ry
     ewald contribution        =     -94.62006969 Ry

     convergence has been achieved in  10 iterations

     Writing all to output data dir ./tmp/Nb_eos_6.50.save/

     total cpu time spent up to now is       25.3 secs

     End of self-consistent calculation

     Number of k-points >= 100: set verbosity='high' to print the bands.

     the Fermi energy is    15.5990 ev

!    total energy              =    -117.92401194 Ry
     estimated scf accuracy    <          9.3E-11 Ry
     smearing contrib. (-TS)   =       0.00018344 Ry
     internal energy E=F+TS    =    -117.92419539 Ry

     The total energy is F=E-TS. E is the sum of the following terms:
     one-electron contribution =     -21.43020652 Ry
     hartree contribution      =      16.44136636 Ry
     xc contribution           =     -18.31528553 Ry
     ewald contribution        =     -94.62006969 Ry

     convergence has been achieved in  10 iterations

     Writing all to output data dir ./tmp/Nb_eos_6.50.save/

     init_run     :      1.05s CPU      1.30s WALL (       1 calls)
     electrons    :     22.59s CPU     23.88s WALL (       1 calls)

     Called by init_run:
     wfcinit      :      0.81s CPU      1.04s WALL (       1 calls)
     potinit      :      0.03s CPU      0.04s WALL (       1 calls)
     hinit0       :      0.16s CPU      0.17s WALL (       1 calls)

     Called by electrons:
     c_bands      :     18.07s CPU     19.07s WALL (      11 calls)
     sum_band     :      4.07s CPU      4.30s WALL (      11 calls)
     v_of_rho     :      0.21s CPU      0.22s WALL (      11 calls)
     newd         :      0.25s CPU      0.31s WALL (      11 calls)
     mix_rho      :      0.02s CPU      0.02s WALL (      11 calls)

     Called by c_bands:
     init_us_2    :      0.50s CPU      0.54s WALL (    3335 calls)
     init_us_2:cp :      0.50s CPU      0.54s WALL (    3335 calls)
     cegterg      :     17.31s CPU     18.25s WALL (    1595 calls)

     Called by *egterg:
     cdiaghg      :      0.32s CPU      0.34s WALL (    5092 calls)
     h_psi        :     15.65s CPU     16.58s WALL (    5382 calls)
     s_psi        :      0.32s CPU      0.33s WALL (    5382 calls)
     g_psi        :      0.05s CPU      0.05s WALL (    3642 calls)

     Called by h_psi:
     h_psi:calbec :      0.37s CPU      0.40s WALL (    5382 calls)
     vloc_psi     :     14.91s CPU     15.78s WALL (    5382 calls)
     add_vuspsi   :      0.32s CPU      0.34s WALL (    5382 calls)

     General routines
     calbec       :      0.51s CPU      0.55s WALL (    6977 calls)
     fft          :      0.11s CPU      0.11s WALL (     142 calls)
     ffts         :      0.01s CPU      0.01s WALL (      22 calls)
     fftw         :     15.26s CPU     16.10s WALL (  104083 calls)
     interpolate  :      0.01s CPU      0.01s WALL (      11 calls)


     PWSCF        :     23.71s CPU     25.31s WALL


   This run was terminated on:  23:18:21   6Mar2026            

=------------------------------------------------------------------------------=
   JOB DONE.
=------------------------------------------------------------------------------=
Note: The following floating-point exceptions are signalling: IEEE_INVALID_FLAG IEEE_DIVIDE_BY_ZERO IEEE_UNDERFLOW_FLAG

     init_run     :      1.06s CPU      1.29s WALL (       1 calls)
     electrons    :     22.86s CPU     23.95s WALL (       1 calls)

     Called by init_run:
     wfcinit      :      0.82s CPU      1.03s WALL (       1 calls)
     potinit      :      0.03s CPU      0.03s WALL (       1 calls)
     hinit0       :      0.17s CPU      0.17s WALL (       1 calls)

     Called by electrons:
     c_bands      :     18.25s CPU     19.03s WALL (      11 calls)
     sum_band     :      4.14s CPU      4.39s WALL (      11 calls)
     v_of_rho     :      0.21s CPU      0.23s WALL (      11 calls)
     newd         :      0.26s CPU      0.32s WALL (      11 calls)
     mix_rho      :      0.02s CPU      0.02s WALL (      11 calls)

     Called by c_bands:
     init_us_2    :      0.51s CPU      0.55s WALL (    3335 calls)
     init_us_2:cp :      0.51s CPU      0.54s WALL (    3335 calls)
     cegterg      :     17.49s CPU     18.21s WALL (    1595 calls)

     Called by *egterg:
     cdiaghg      :      0.32s CPU      0.34s WALL (    5092 calls)
     h_psi        :     15.81s CPU     16.52s WALL (    5382 calls)
     s_psi        :      0.32s CPU      0.34s WALL (    5382 calls)
     g_psi        :      0.05s CPU      0.05s WALL (    3642 calls)

     Called by h_psi:
     h_psi:calbec :      0.37s CPU      0.40s WALL (    5382 calls)
     vloc_psi     :     15.07s CPU     15.72s WALL (    5382 calls)
     add_vuspsi   :      0.33s CPU      0.35s WALL (    5382 calls)

     General routines
     calbec       :      0.52s CPU      0.55s WALL (    6977 calls)
     fft          :      0.11s CPU      0.11s WALL (     142 calls)
     ffts         :      0.01s CPU      0.01s WALL (      22 calls)
     fftw         :     15.47s CPU     16.13s WALL (  104083 calls)
     interpolate  :      0.01s CPU      0.01s WALL (      11 calls)


     PWSCF        :     23.98s CPU     25.35s WALL


   This run was terminated on:  23:18:21   6Mar2026            

=------------------------------------------------------------------------------=
   JOB DONE.
=------------------------------------------------------------------------------=
Note: The following floating-point exceptions are signalling: IEEE_INVALID_FLAG IEEE_DIVIDE_BY_ZERO IEEE_UNDERFLOW_FLAG

     total cpu time spent up to now is       25.4 secs

     End of self-consistent calculation

     Number of k-points >= 100: set verbosity='high' to print the bands.

     the Fermi energy is    15.5990 ev

!    total energy              =    -117.92401194 Ry
     estimated scf accuracy    <          9.3E-11 Ry
     smearing contrib. (-TS)   =       0.00018344 Ry
     internal energy E=F+TS    =    -117.92419539 Ry

     The total energy is F=E-TS. E is the sum of the following terms:
     one-electron contribution =     -21.43020652 Ry
     hartree contribution      =      16.44136636 Ry
     xc contribution           =     -18.31528553 Ry
     ewald contribution        =     -94.62006969 Ry

     convergence has been achieved in  10 iterations

     Writing all to output data dir ./tmp/Nb_eos_6.50.save/

     init_run     :      1.06s CPU      1.10s WALL (       1 calls)
     electrons    :     23.05s CPU     24.23s WALL (       1 calls)

     Called by init_run:
     wfcinit      :      0.83s CPU      0.84s WALL (       1 calls)
     potinit      :      0.03s CPU      0.03s WALL (       1 calls)
     hinit0       :      0.16s CPU      0.17s WALL (       1 calls)

     Called by electrons:
     c_bands      :     18.48s CPU     19.30s WALL (      11 calls)
     sum_band     :      4.10s CPU      4.38s WALL (      11 calls)
     v_of_rho     :      0.22s CPU      0.25s WALL (      11 calls)
     newd         :      0.26s CPU      0.33s WALL (      11 calls)
     mix_rho      :      0.02s CPU      0.02s WALL (      11 calls)

     Called by c_bands:
     init_us_2    :      0.51s CPU      0.53s WALL (    3335 calls)
     init_us_2:cp :      0.51s CPU      0.53s WALL (    3335 calls)
     cegterg      :     17.70s CPU     18.48s WALL (    1595 calls)

     Called by *egterg:
     cdiaghg      :      0.33s CPU      0.35s WALL (    5092 calls)
     h_psi        :     15.99s CPU     16.59s WALL (    5382 calls)
     s_psi        :      0.33s CPU      0.34s WALL (    5382 calls)
     g_psi        :      0.05s CPU      0.05s WALL (    3642 calls)

     Called by h_psi:
     h_psi:calbec :      0.38s CPU      0.39s WALL (    5382 calls)
     vloc_psi     :     15.24s CPU     15.80s WALL (    5382 calls)
     add_vuspsi   :      0.33s CPU      0.34s WALL (    5382 calls)

     General routines
     calbec       :      0.52s CPU      0.54s WALL (    6977 calls)
     fft          :      0.11s CPU      0.12s WALL (     142 calls)
     ffts         :      0.01s CPU      0.01s WALL (      22 calls)
     fftw         :     15.59s CPU     16.20s WALL (  104083 calls)
     interpolate  :      0.01s CPU      0.02s WALL (      11 calls)


     PWSCF        :     24.18s CPU     25.44s WALL


   This run was terminated on:  23:18:21   6Mar2026            

=------------------------------------------------------------------------------=
   JOB DONE.
=------------------------------------------------------------------------------=
Note: The following floating-point exceptions are signalling: IEEE_INVALID_FLAG IEEE_DIVIDE_BY_ZERO IEEE_UNDERFLOW_FLAG

     total cpu time spent up to now is       25.5 secs

     End of self-consistent calculation

     Number of k-points >= 100: set verbosity='high' to print the bands.

     the Fermi energy is    15.5990 ev

!    total energy              =    -117.92401194 Ry
     estimated scf accuracy    <          9.3E-11 Ry
     smearing contrib. (-TS)   =       0.00018344 Ry
     internal energy E=F+TS    =    -117.92419539 Ry

     The total energy is F=E-TS. E is the sum of the following terms:
     one-electron contribution =     -21.43020652 Ry
     hartree contribution      =      16.44136636 Ry
     xc contribution           =     -18.31528553 Ry
     ewald contribution        =     -94.62006969 Ry

     convergence has been achieved in  10 iterations

     Writing all to output data dir ./tmp/Nb_eos_6.50.save/

     init_run     :      1.07s CPU      1.12s WALL (       1 calls)
     electrons    :     22.97s CPU     24.30s WALL (       1 calls)

     Called by init_run:
     wfcinit      :      0.81s CPU      0.85s WALL (       1 calls)
     potinit      :      0.03s CPU      0.03s WALL (       1 calls)
     hinit0       :      0.18s CPU      0.20s WALL (       1 calls)

     Called by electrons:
     c_bands      :     18.43s CPU     19.39s WALL (      11 calls)
     sum_band     :      4.10s CPU      4.35s WALL (      11 calls)
     v_of_rho     :      0.20s CPU      0.24s WALL (      11 calls)
     newd         :      0.25s CPU      0.33s WALL (      11 calls)
     mix_rho      :      0.02s CPU      0.02s WALL (      11 calls)

     Called by c_bands:
     init_us_2    :      0.51s CPU      0.53s WALL (    3335 calls)
     init_us_2:cp :      0.51s CPU      0.53s WALL (    3335 calls)
     cegterg      :     17.65s CPU     18.57s WALL (    1595 calls)

     Called by *egterg:
     cdiaghg      :      0.33s CPU      0.35s WALL (    5092 calls)
     h_psi        :     15.94s CPU     16.69s WALL (    5382 calls)
     s_psi        :      0.33s CPU      0.34s WALL (    5382 calls)
     g_psi        :      0.05s CPU      0.05s WALL (    3642 calls)

     Called by h_psi:
     h_psi:calbec :      0.38s CPU      0.39s WALL (    5382 calls)
     vloc_psi     :     15.19s CPU     15.89s WALL (    5382 calls)
     add_vuspsi   :      0.33s CPU      0.34s WALL (    5382 calls)

     General routines
     calbec       :      0.52s CPU      0.55s WALL (    6977 calls)
     fft          :      0.11s CPU      0.12s WALL (     142 calls)
     ffts         :      0.01s CPU      0.01s WALL (      22 calls)
     fftw         :     15.53s CPU     16.22s WALL (  104083 calls)
     interpolate  :      0.01s CPU      0.01s WALL (      11 calls)


     PWSCF        :     24.10s CPU     25.52s WALL


   This run was terminated on:  23:18:22   6Mar2026            

=------------------------------------------------------------------------------=
   JOB DONE.
=------------------------------------------------------------------------------=
Note: The following floating-point exceptions are signalling: IEEE_INVALID_FLAG IEEE_DIVIDE_BY_ZERO IEEE_UNDERFLOW_FLAG
     ethr =  2.75E-12,  avg # of iterations =  2.0

     total cpu time spent up to now is       26.1 secs

     End of self-consistent calculation

     Number of k-points >= 100: set verbosity='high' to print the bands.

     the Fermi energy is    15.5990 ev

!    total energy              =    -117.92401194 Ry
     estimated scf accuracy    <          9.3E-11 Ry
     smearing contrib. (-TS)   =       0.00018344 Ry
     internal energy E=F+TS    =    -117.92419539 Ry

     The total energy is F=E-TS. E is the sum of the following terms:
     one-electron contribution =     -21.43020652 Ry
     hartree contribution      =      16.44136636 Ry
     xc contribution           =     -18.31528553 Ry
     ewald contribution        =     -94.62006969 Ry

     convergence has been achieved in  10 iterations

     Writing all to output data dir ./tmp/Nb_eos_6.50.save/

     init_run     :      1.08s CPU      1.34s WALL (       1 calls)
     electrons    :     23.33s CPU     24.75s WALL (       1 calls)

     Called by init_run:
     wfcinit      :      0.83s CPU      1.05s WALL (       1 calls)
     potinit      :      0.03s CPU      0.04s WALL (       1 calls)
     hinit0       :      0.17s CPU      0.19s WALL (       1 calls)

     Called by electrons:
     c_bands      :     18.77s CPU     19.92s WALL (      11 calls)
     sum_band     :      4.09s CPU      4.29s WALL (      11 calls)
     v_of_rho     :      0.22s CPU      0.24s WALL (      11 calls)
     newd         :      0.26s CPU      0.33s WALL (      11 calls)
     mix_rho      :      0.02s CPU      0.02s WALL (      11 calls)

     Called by c_bands:
     init_us_2    :      0.51s CPU      0.55s WALL (    3335 calls)
     init_us_2:cp :      0.51s CPU      0.55s WALL (    3335 calls)
     cegterg      :     17.98s CPU     19.06s WALL (    1595 calls)

     Called by *egterg:
     cdiaghg      :      0.33s CPU      0.36s WALL (    5092 calls)
     h_psi        :     16.23s CPU     17.26s WALL (    5382 calls)
     s_psi        :      0.34s CPU      0.35s WALL (    5382 calls)
     g_psi        :      0.05s CPU      0.06s WALL (    3642 calls)

     Called by h_psi:
     h_psi:calbec :      0.39s CPU      0.42s WALL (    5382 calls)
     vloc_psi     :     15.47s CPU     16.42s WALL (    5382 calls)
     add_vuspsi   :      0.34s CPU      0.37s WALL (    5382 calls)

     General routines
     calbec       :      0.53s CPU      0.56s WALL (    6977 calls)
     fft          :      0.12s CPU      0.12s WALL (     142 calls)
     ffts         :      0.01s CPU      0.01s WALL (      22 calls)
     fftw         :     15.78s CPU     16.65s WALL (  104083 calls)
     interpolate  :      0.01s CPU      0.02s WALL (      11 calls)


     PWSCF        :     24.48s CPU     26.18s WALL


   This run was terminated on:  23:18:22   6Mar2026            

=------------------------------------------------------------------------------=
   JOB DONE.
=------------------------------------------------------------------------------=
Note: The following floating-point exceptions are signalling: IEEE_INVALID_FLAG IEEE_DIVIDE_BY_ZERO IEEE_UNDERFLOW_FLAG
