
     Program PWSCF v.7.2 starts on  6Mar2026 at 23: 0:45 

     This program is part of the open-source Quantum ESPRESSO suite
     for quantum simulation of materials; please cite
         "P. Giannozzi et al., J. Phys.:Condens. Matter 21 395502 (2009);
         "P. Giannozzi et al., J. Phys.:Condens. Matter 29 465901 (2017);
         "P. Giannozzi et al., J. Chem. Phys. 152 154105 (2020);
          URL http://www.quantum-espresso.org", 
     in publications or presentations arising from this work. More details at
     http://www.quantum-espresso.org/quote

     Serial multi-threaded version, running on    1 processor cores
     0 MiB available memory on the printing compute node when the environment starts


     Program PWSCF v.7.2 starts on  6Mar2026 at 23: 0:45 

     This program is part of the open-source Quantum ESPRESSO suite
     for quantum simulation of materials; please cite
         "P. Giannozzi et al., J. Phys.:Condens. Matter 21 395502 (2009);
         "P. Giannozzi et al., J. Phys.:Condens. Matter 29 465901 (2017);
         "P. Giannozzi et al., J. Chem. Phys. 152 154105 (2020);
          URL http://www.quantum-espresso.org", 
     in publications or presentations arising from this work. More details at
     http://www.quantum-espresso.org/quote

     Serial multi-threaded version, running on    1 processor cores
     0 MiB available memory on the printing compute node when the environment starts

     Reading input from results/eos/Nb_eos_6.235.in
     Reading input from results/eos/Nb_eos_6.235.in

     Program PWSCF v.7.2 starts on  6Mar2026 at 23: 0:45 

     This program is part of the open-source Quantum ESPRESSO suite
     for quantum simulation of materials; please cite
         "P. Giannozzi et al., J. Phys.:Condens. Matter 21 395502 (2009);
         "P. Giannozzi et al., J. Phys.:Condens. Matter 29 465901 (2017);
         "P. Giannozzi et al., J. Chem. Phys. 152 154105 (2020);
          URL http://www.quantum-espresso.org", 
     in publications or presentations arising from this work. More details at
     http://www.quantum-espresso.org/quote

     Serial multi-threaded version, running on    1 processor cores
     0 MiB available memory on the printing compute node when the environment starts

     Reading input from results/eos/Nb_eos_6.235.in

     Program PWSCF v.7.2 starts on  6Mar2026 at 23: 0:45 

     This program is part of the open-source Quantum ESPRESSO suite
     for quantum simulation of materials; please cite
         "P. Giannozzi et al., J. Phys.:Condens. Matter 21 395502 (2009);
         "P. Giannozzi et al., J. Phys.:Condens. Matter 29 465901 (2017);
         "P. Giannozzi et al., J. Chem. Phys. 152 154105 (2020);
          URL http://www.quantum-espresso.org", 
     in publications or presentations arising from this work. More details at
     http://www.quantum-espresso.org/quote

     Serial multi-threaded version, running on    1 processor cores
     0 MiB available memory on the printing compute node when the environment starts

     Reading input from results/eos/Nb_eos_6.235.in

     Current dimensions of program PWSCF are:
     Max number of different atomic species (ntypx) = 10
     Max number of k-points (npk) =  40000
     Max angular momentum in pseudopotentials (lmaxx) =  4

     Current dimensions of program PWSCF are:
     Max number of different atomic species (ntypx) = 10
     Max number of k-points (npk) =  40000
     Max angular momentum in pseudopotentials (lmaxx) =  4

     Current dimensions of program PWSCF are:
     Max number of different atomic species (ntypx) = 10
     Max number of k-points (npk) =  40000
     Max angular momentum in pseudopotentials (lmaxx) =  4

     Program PWSCF v.7.2 starts on  6Mar2026 at 23: 0:45 

     This program is part of the open-source Quantum ESPRESSO suite
     for quantum simulation of materials; please cite
         "P. Giannozzi et al., J. Phys.:Condens. Matter 21 395502 (2009);
         "P. Giannozzi et al., J. Phys.:Condens. Matter 29 465901 (2017);
         "P. Giannozzi et al., J. Chem. Phys. 152 154105 (2020);
          URL http://www.quantum-espresso.org", 
     in publications or presentations arising from this work. More details at
     http://www.quantum-espresso.org/quote

     Serial multi-threaded version, running on    1 processor cores
     0 MiB available memory on the printing compute node when the environment starts


     Program PWSCF v.7.2 starts on  6Mar2026 at 23: 0:45 

     This program is part of the open-source Quantum ESPRESSO suite
     for quantum simulation of materials; please cite
         "P. Giannozzi et al., J. Phys.:Condens. Matter 21 395502 (2009);
         "P. Giannozzi et al., J. Phys.:Condens. Matter 29 465901 (2017);
         "P. Giannozzi et al., J. Chem. Phys. 152 154105 (2020);
          URL http://www.quantum-espresso.org", 
     in publications or presentations arising from this work. More details at
     http://www.quantum-espresso.org/quote

     Serial multi-threaded version, running on    1 processor cores
     0 MiB available memory on the printing compute node when the environment starts

     Reading input from results/eos/Nb_eos_6.235.in

     Current dimensions of program PWSCF are:
     Max number of different atomic species (ntypx) = 10
     Max number of k-points (npk) =  40000
     Max angular momentum in pseudopotentials (lmaxx) =  4
     Reading input from results/eos/Nb_eos_6.235.in

     Current dimensions of program PWSCF are:
     Max number of different atomic species (ntypx) = 10
     Max number of k-points (npk) =  40000
     Max angular momentum in pseudopotentials (lmaxx) =  4

     Current dimensions of program PWSCF are:
     Max number of different atomic species (ntypx) = 10
     Max number of k-points (npk) =  40000
     Max angular momentum in pseudopotentials (lmaxx) =  4


     G-vector sticks info
     --------------------
     sticks:   dense  smooth     PW     G-vecs:    dense   smooth      PW
     Sum        1227     619    197                27115     9597    1721

     Using Slab Decomposition



     bravais-lattice index     =            3
     lattice parameter (alat)  =       6.2350  a.u.
     unit-cell volume          =     121.1935 (a.u.)^3
     number of atoms/cell      =            1
     number of atomic types    =            1
     number of electrons       =        13.00
     number of Kohn-Sham states=           11
     kinetic-energy cutoff     =      70.0000  Ry
     charge density cutoff     =     560.0000  Ry
     scf convergence threshold =      1.0E-10
     mixing beta               =       0.4000
     number of iterations used =            8  plain     mixing
     Exchange-correlation= SLA  PW   PBE  PBE
                           (   1   4   3   4   0   0   0)

     celldm(1)=   6.235000  celldm(2)=   0.000000  celldm(3)=   0.000000
     celldm(4)=   0.000000  celldm(5)=   0.000000  celldm(6)=   0.000000

     crystal axes: (cart. coord. in units of alat)
               a(1) = (   0.500000   0.500000   0.500000 )  
               a(2) = (  -0.500000   0.500000   0.500000 )  
               a(3) = (  -0.500000  -0.500000   0.500000 )  

     reciprocal axes: (cart. coord. in units 2 pi/alat)
               b(1) = (  1.000000  0.000000  1.000000 )  
               b(2) = ( -1.000000  1.000000  0.000000 )  
               b(3) = (  0.000000 -1.000000  1.000000 )  


     PseudoPot. # 1 for Nb read from file:
     ./pseudo/nb_pbe_v1.uspp.F.UPF
     MD5 check sum: 573aab8a2fa660278ed4a62cd769473f
     Pseudo is Ultrasoft + core correction, Zval = 13.0
     Generated by new atomic code, or converted to UPF format
     Using radial grid of  887 points,  6 beta functions with: 
                l(1) =   0
                l(2) =   0
                l(3) =   1
                l(4) =   1
                l(5) =   2
                l(6) =   2
     Q(r) pseudized with  6 coefficients,  rinner =    1.000   1.000   1.000
                                                       1.000   1.000

     atomic species   valence    mass     pseudopotential
        Nb            13.00    92.90600     Nb( 1.00)

     48 Sym. Ops., with inversion, found



   Cartesian axes

     site n.     atom                  positions (alat units)
         1           Nb  tau(   1) = (   0.0000000   0.0000000   0.0000000  )

     number of k points=   145  Marzari-Vanderbilt smearing, width (Ry)=  0.0300

     Number of k-points >= 100: set verbosity='high' to print them.

     Dense  grid:    27115 G-vectors     FFT dimensions: (  45,  45,  45)

     Smooth grid:     9597 G-vectors     FFT dimensions: (  30,  30,  30)

     Estimated max dynamical RAM per process >     126.38 MB


     G-vector sticks info
     --------------------
     sticks:   dense  smooth     PW     G-vecs:    dense   smooth      PW
     Sum        1227     619    197                27115     9597    1721

     Using Slab Decomposition



     bravais-lattice index     =            3
     lattice parameter (alat)  =       6.2350  a.u.
     unit-cell volume          =     121.1935 (a.u.)^3
     number of atoms/cell      =            1
     number of atomic types    =            1
     number of electrons       =        13.00
     number of Kohn-Sham states=           11
     kinetic-energy cutoff     =      70.0000  Ry
     charge density cutoff     =     560.0000  Ry
     scf convergence threshold =      1.0E-10
     mixing beta               =       0.4000
     number of iterations used =            8  plain     mixing
     Exchange-correlation= SLA  PW   PBE  PBE
                           (   1   4   3   4   0   0   0)

     celldm(1)=   6.235000  celldm(2)=   0.000000  celldm(3)=   0.000000
     celldm(4)=   0.000000  celldm(5)=   0.000000  celldm(6)=   0.000000

     crystal axes: (cart. coord. in units of alat)
               a(1) = (   0.500000   0.500000   0.500000 )  
               a(2) = (  -0.500000   0.500000   0.500000 )  
               a(3) = (  -0.500000  -0.500000   0.500000 )  

     reciprocal axes: (cart. coord. in units 2 pi/alat)
               b(1) = (  1.000000  0.000000  1.000000 )  
               b(2) = ( -1.000000  1.000000  0.000000 )  
               b(3) = (  0.000000 -1.000000  1.000000 )  


     PseudoPot. # 1 for Nb read from file:
     ./pseudo/nb_pbe_v1.uspp.F.UPF
     MD5 check sum: 573aab8a2fa660278ed4a62cd769473f
     Pseudo is Ultrasoft + core correction, Zval = 13.0
     Generated by new atomic code, or converted to UPF format
     Using radial grid of  887 points,  6 beta functions with: 
                l(1) =   0
                l(2) =   0
                l(3) =   1
                l(4) =   1
                l(5) =   2
                l(6) =   2
     Q(r) pseudized with  6 coefficients,  rinner =    1.000   1.000   1.000
                                                       1.000   1.000

     atomic species   valence    mass     pseudopotential
        Nb            13.00    92.90600     Nb( 1.00)

     48 Sym. Ops., with inversion, found



   Cartesian axes

     site n.     atom                  positions (alat units)
         1           Nb  tau(   1) = (   0.0000000   0.0000000   0.0000000  )

     number of k points=   145  Marzari-Vanderbilt smearing, width (Ry)=  0.0300

     Number of k-points >= 100: set verbosity='high' to print them.

     Dense  grid:    27115 G-vectors     FFT dimensions: (  45,  45,  45)

     Smooth grid:     9597 G-vectors     FFT dimensions: (  30,  30,  30)

     Estimated max dynamical RAM per process >     126.38 MB


     G-vector sticks info
     --------------------
     sticks:   dense  smooth     PW     G-vecs:    dense   smooth      PW
     Sum        1227     619    197                27115     9597    1721

     Using Slab Decomposition



     bravais-lattice index     =            3
     lattice parameter (alat)  =       6.2350  a.u.
     unit-cell volume          =     121.1935 (a.u.)^3
     number of atoms/cell      =            1
     number of atomic types    =            1
     number of electrons       =        13.00
     number of Kohn-Sham states=           11
     kinetic-energy cutoff     =      70.0000  Ry
     charge density cutoff     =     560.0000  Ry
     scf convergence threshold =      1.0E-10
     mixing beta               =       0.4000
     number of iterations used =            8  plain     mixing
     Exchange-correlation= SLA  PW   PBE  PBE
                           (   1   4   3   4   0   0   0)

     celldm(1)=   6.235000  celldm(2)=   0.000000  celldm(3)=   0.000000
     celldm(4)=   0.000000  celldm(5)=   0.000000  celldm(6)=   0.000000

     crystal axes: (cart. coord. in units of alat)
               a(1) = (   0.500000   0.500000   0.500000 )  
               a(2) = (  -0.500000   0.500000   0.500000 )  
               a(3) = (  -0.500000  -0.500000   0.500000 )  

     reciprocal axes: (cart. coord. in units 2 pi/alat)
               b(1) = (  1.000000  0.000000  1.000000 )  
               b(2) = ( -1.000000  1.000000  0.000000 )  
               b(3) = (  0.000000 -1.000000  1.000000 )  


     PseudoPot. # 1 for Nb read from file:
     ./pseudo/nb_pbe_v1.uspp.F.UPF
     MD5 check sum: 573aab8a2fa660278ed4a62cd769473f
     Pseudo is Ultrasoft + core correction, Zval = 13.0
     Generated by new atomic code, or converted to UPF format
     Using radial grid of  887 points,  6 beta functions with: 
                l(1) =   0
                l(2) =   0
                l(3) =   1
                l(4) =   1
                l(5) =   2
                l(6) =   2
     Q(r) pseudized with  6 coefficients,  rinner =    1.000   1.000   1.000
                                                       1.000   1.000

     atomic species   valence    mass     pseudopotential
        Nb            13.00    92.90600     Nb( 1.00)

     48 Sym. Ops., with inversion, found



   Cartesian axes

     site n.     atom                  positions (alat units)
         1           Nb  tau(   1) = (   0.0000000   0.0000000   0.0000000  )

     number of k points=   145  Marzari-Vanderbilt smearing, width (Ry)=  0.0300

     Number of k-points >= 100: set verbosity='high' to print them.

     Dense  grid:    27115 G-vectors     FFT dimensions: (  45,  45,  45)

     Smooth grid:     9597 G-vectors     FFT dimensions: (  30,  30,  30)

     Estimated max dynamical RAM per process >     126.38 MB


     G-vector sticks info
     --------------------
     sticks:   dense  smooth     PW     G-vecs:    dense   smooth      PW
     Sum        1227     619    197                27115     9597    1721

     Using Slab Decomposition



     bravais-lattice index     =            3
     lattice parameter (alat)  =       6.2350  a.u.
     unit-cell volume          =     121.1935 (a.u.)^3
     number of atoms/cell      =            1
     number of atomic types    =            1
     number of electrons       =        13.00
     number of Kohn-Sham states=           11
     kinetic-energy cutoff     =      70.0000  Ry
     charge density cutoff     =     560.0000  Ry
     scf convergence threshold =      1.0E-10
     mixing beta               =       0.4000
     number of iterations used =            8  plain     mixing
     Exchange-correlation= SLA  PW   PBE  PBE
                           (   1   4   3   4   0   0   0)

     celldm(1)=   6.235000  celldm(2)=   0.000000  celldm(3)=   0.000000
     celldm(4)=   0.000000  celldm(5)=   0.000000  celldm(6)=   0.000000

     crystal axes: (cart. coord. in units of alat)
               a(1) = (   0.500000   0.500000   0.500000 )  
               a(2) = (  -0.500000   0.500000   0.500000 )  
               a(3) = (  -0.500000  -0.500000   0.500000 )  

     reciprocal axes: (cart. coord. in units 2 pi/alat)
               b(1) = (  1.000000  0.000000  1.000000 )  
               b(2) = ( -1.000000  1.000000  0.000000 )  
               b(3) = (  0.000000 -1.000000  1.000000 )  


     PseudoPot. # 1 for Nb read from file:
     ./pseudo/nb_pbe_v1.uspp.F.UPF
     MD5 check sum: 573aab8a2fa660278ed4a62cd769473f
     Pseudo is Ultrasoft + core correction, Zval = 13.0
     Generated by new atomic code, or converted to UPF format
     Using radial grid of  887 points,  6 beta functions with: 
                l(1) =   0
                l(2) =   0
                l(3) =   1
                l(4) =   1
                l(5) =   2
                l(6) =   2
     Q(r) pseudized with  6 coefficients,  rinner =    1.000   1.000   1.000
                                                       1.000   1.000

     atomic species   valence    mass     pseudopotential
        Nb            13.00    92.90600     Nb( 1.00)

     48 Sym. Ops., with inversion, found



   Cartesian axes

     site n.     atom                  positions (alat units)
         1           Nb  tau(   1) = (   0.0000000   0.0000000   0.0000000  )

     number of k points=   145  Marzari-Vanderbilt smearing, width (Ry)=  0.0300

     Number of k-points >= 100: set verbosity='high' to print them.

     Dense  grid:    27115 G-vectors     FFT dimensions: (  45,  45,  45)

     Smooth grid:     9597 G-vectors     FFT dimensions: (  30,  30,  30)


     Estimated max dynamical RAM per process >     126.38 MB

     G-vector sticks info
     --------------------
     sticks:   dense  smooth     PW     G-vecs:    dense   smooth      PW
     Sum        1227     619    197                27115     9597    1721

     Using Slab Decomposition



     bravais-lattice index     =            3
     lattice parameter (alat)  =       6.2350  a.u.
     unit-cell volume          =     121.1935 (a.u.)^3
     number of atoms/cell      =            1
     number of atomic types    =            1
     number of electrons       =        13.00
     number of Kohn-Sham states=           11
     kinetic-energy cutoff     =      70.0000  Ry
     charge density cutoff     =     560.0000  Ry
     scf convergence threshold =      1.0E-10
     mixing beta               =       0.4000
     number of iterations used =            8  plain     mixing
     Exchange-correlation= SLA  PW   PBE  PBE
                           (   1   4   3   4   0   0   0)

     celldm(1)=   6.235000  celldm(2)=   0.000000  celldm(3)=   0.000000
     celldm(4)=   0.000000  celldm(5)=   0.000000  celldm(6)=   0.000000

     crystal axes: (cart. coord. in units of alat)
               a(1) = (   0.500000   0.500000   0.500000 )  
               a(2) = (  -0.500000   0.500000   0.500000 )  
               a(3) = (  -0.500000  -0.500000   0.500000 )  

     reciprocal axes: (cart. coord. in units 2 pi/alat)
               b(1) = (  1.000000  0.000000  1.000000 )  
               b(2) = ( -1.000000  1.000000  0.000000 )  
               b(3) = (  0.000000 -1.000000  1.000000 )  


     PseudoPot. # 1 for Nb read from file:
     ./pseudo/nb_pbe_v1.uspp.F.UPF
     MD5 check sum: 573aab8a2fa660278ed4a62cd769473f
     Pseudo is Ultrasoft + core correction, Zval = 13.0
     Generated by new atomic code, or converted to UPF format
     Using radial grid of  887 points,  6 beta functions with: 
                l(1) =   0
                l(2) =   0
                l(3) =   1
                l(4) =   1
                l(5) =   2
                l(6) =   2
     Q(r) pseudized with  6 coefficients,  rinner =    1.000   1.000   1.000
                                                       1.000   1.000

     atomic species   valence    mass     pseudopotential
        Nb            13.00    92.90600     Nb( 1.00)

     48 Sym. Ops., with inversion, found



   Cartesian axes

     site n.     atom                  positions (alat units)
         1           Nb  tau(   1) = (   0.0000000   0.0000000   0.0000000  )

     number of k points=   145  Marzari-Vanderbilt smearing, width (Ry)=  0.0300

     Number of k-points >= 100: set verbosity='high' to print them.

     Dense  grid:    27115 G-vectors     FFT dimensions: (  45,  45,  45)

     Smooth grid:     9597 G-vectors     FFT dimensions: (  30,  30,  30)

     Estimated max dynamical RAM per process >     126.38 MB


     G-vector sticks info
     --------------------
     sticks:   dense  smooth     PW     G-vecs:    dense   smooth      PW
     Sum        1227     619    197                27115     9597    1721

     Using Slab Decomposition



     bravais-lattice index     =            3
     lattice parameter (alat)  =       6.2350  a.u.
     unit-cell volume          =     121.1935 (a.u.)^3
     number of atoms/cell      =            1
     number of atomic types    =            1
     number of electrons       =        13.00
     number of Kohn-Sham states=           11
     kinetic-energy cutoff     =      70.0000  Ry
     charge density cutoff     =     560.0000  Ry
     scf convergence threshold =      1.0E-10
     mixing beta               =       0.4000
     number of iterations used =            8  plain     mixing
     Exchange-correlation= SLA  PW   PBE  PBE
                           (   1   4   3   4   0   0   0)

     celldm(1)=   6.235000  celldm(2)=   0.000000  celldm(3)=   0.000000
     celldm(4)=   0.000000  celldm(5)=   0.000000  celldm(6)=   0.000000

     crystal axes: (cart. coord. in units of alat)
               a(1) = (   0.500000   0.500000   0.500000 )  
               a(2) = (  -0.500000   0.500000   0.500000 )  
               a(3) = (  -0.500000  -0.500000   0.500000 )  

     reciprocal axes: (cart. coord. in units 2 pi/alat)
               b(1) = (  1.000000  0.000000  1.000000 )  
               b(2) = ( -1.000000  1.000000  0.000000 )  
               b(3) = (  0.000000 -1.000000  1.000000 )  


     PseudoPot. # 1 for Nb read from file:
     ./pseudo/nb_pbe_v1.uspp.F.UPF
     MD5 check sum: 573aab8a2fa660278ed4a62cd769473f
     Pseudo is Ultrasoft + core correction, Zval = 13.0
     Generated by new atomic code, or converted to UPF format
     Using radial grid of  887 points,  6 beta functions with: 
                l(1) =   0
                l(2) =   0
                l(3) =   1
                l(4) =   1
                l(5) =   2
                l(6) =   2
     Q(r) pseudized with  6 coefficients,  rinner =    1.000   1.000   1.000
                                                       1.000   1.000

     atomic species   valence    mass     pseudopotential
        Nb            13.00    92.90600     Nb( 1.00)

     48 Sym. Ops., with inversion, found



   Cartesian axes

     site n.     atom                  positions (alat units)
         1           Nb  tau(   1) = (   0.0000000   0.0000000   0.0000000  )

     number of k points=   145  Marzari-Vanderbilt smearing, width (Ry)=  0.0300

     Number of k-points >= 100: set verbosity='high' to print them.

     Dense  grid:    27115 G-vectors     FFT dimensions: (  45,  45,  45)

     Smooth grid:     9597 G-vectors     FFT dimensions: (  30,  30,  30)

     Estimated max dynamical RAM per process >     126.38 MB

     Initial potential from superposition of free atoms

     starting charge      12.9973, renormalised to      13.0000

     Initial potential from superposition of free atoms

     starting charge      12.9973, renormalised to      13.0000

     Initial potential from superposition of free atoms

     starting charge      12.9973, renormalised to      13.0000

     Initial potential from superposition of free atoms

     Initial potential from superposition of free atoms

     starting charge      12.9973, renormalised to      13.0000

     starting charge      12.9973, renormalised to      13.0000

     Initial potential from superposition of free atoms

     starting charge      12.9973, renormalised to      13.0000
     Starting wfcs are   13 randomized atomic wfcs
     Starting wfcs are   13 randomized atomic wfcs
     Starting wfcs are   13 randomized atomic wfcs
     Starting wfcs are   13 randomized atomic wfcs
     Starting wfcs are   13 randomized atomic wfcs
     Starting wfcs are   13 randomized atomic wfcs

     total cpu time spent up to now is        1.2 secs

     Self-consistent Calculation

     iteration #  1     ecut=    70.00 Ry     beta= 0.40
     Davidson diagonalization with overlap

     total cpu time spent up to now is        1.3 secs

     Self-consistent Calculation

     iteration #  1     ecut=    70.00 Ry     beta= 0.40
     Davidson diagonalization with overlap

     total cpu time spent up to now is        1.3 secs

     Self-consistent Calculation

     iteration #  1     ecut=    70.00 Ry     beta= 0.40
     Davidson diagonalization with overlap

     total cpu time spent up to now is        1.3 secs

     Self-consistent Calculation

     iteration #  1     ecut=    70.00 Ry     beta= 0.40
     Davidson diagonalization with overlap

     total cpu time spent up to now is        1.3 secs

     Self-consistent Calculation

     iteration #  1     ecut=    70.00 Ry     beta= 0.40
     Davidson diagonalization with overlap

     total cpu time spent up to now is        1.4 secs

     Self-consistent Calculation

     iteration #  1     ecut=    70.00 Ry     beta= 0.40
     Davidson diagonalization with overlap
     ethr =  1.00E-02,  avg # of iterations =  3.5
     ethr =  1.00E-02,  avg # of iterations =  3.5
     ethr =  1.00E-02,  avg # of iterations =  3.5

     Threshold (ethr) on eigenvalues was too large:
     Diagonalizing with lowered threshold

     Davidson diagonalization with overlap
     ethr =  1.00E-02,  avg # of iterations =  3.5
     ethr =  1.00E-02,  avg # of iterations =  3.5
     ethr =  1.00E-02,  avg # of iterations =  3.5

     Threshold (ethr) on eigenvalues was too large:
     Diagonalizing with lowered threshold

     Davidson diagonalization with overlap

     Threshold (ethr) on eigenvalues was too large:
     Diagonalizing with lowered threshold

     Davidson diagonalization with overlap

     Threshold (ethr) on eigenvalues was too large:
     Diagonalizing with lowered threshold

     Davidson diagonalization with overlap

     Threshold (ethr) on eigenvalues was too large:
     Diagonalizing with lowered threshold

     Davidson diagonalization with overlap

     Threshold (ethr) on eigenvalues was too large:
     Diagonalizing with lowered threshold

     Davidson diagonalization with overlap
     ethr =  6.65E-04,  avg # of iterations =  1.2
     ethr =  6.65E-04,  avg # of iterations =  1.2
     ethr =  6.65E-04,  avg # of iterations =  1.2
     ethr =  6.65E-04,  avg # of iterations =  1.2
     ethr =  6.65E-04,  avg # of iterations =  1.2
     ethr =  6.65E-04,  avg # of iterations =  1.2

     total cpu time spent up to now is        5.3 secs

     total energy              =    -117.92810682 Ry
     estimated scf accuracy    <       0.08861268 Ry

     iteration #  2     ecut=    70.00 Ry     beta= 0.40
     Davidson diagonalization with overlap

     total cpu time spent up to now is        5.5 secs

     total energy              =    -117.92810682 Ry
     estimated scf accuracy    <       0.08861268 Ry

     iteration #  2     ecut=    70.00 Ry     beta= 0.40
     Davidson diagonalization with overlap

     total cpu time spent up to now is        5.7 secs

     total energy              =    -117.92810682 Ry
     estimated scf accuracy    <       0.08861268 Ry

     iteration #  2     ecut=    70.00 Ry     beta= 0.40
     Davidson diagonalization with overlap

     total cpu time spent up to now is        5.7 secs

     total energy              =    -117.92810682 Ry
     estimated scf accuracy    <       0.08861268 Ry

     iteration #  2     ecut=    70.00 Ry     beta= 0.40
     Davidson diagonalization with overlap

     total cpu time spent up to now is        5.8 secs

     total energy              =    -117.92810682 Ry
     estimated scf accuracy    <       0.08861268 Ry

     iteration #  2     ecut=    70.00 Ry     beta= 0.40
     Davidson diagonalization with overlap

     total cpu time spent up to now is        5.8 secs

     total energy              =    -117.92810682 Ry
     estimated scf accuracy    <       0.08861268 Ry

     iteration #  2     ecut=    70.00 Ry     beta= 0.40
     Davidson diagonalization with overlap
     ethr =  6.82E-04,  avg # of iterations =  1.9
     ethr =  6.82E-04,  avg # of iterations =  1.9
     ethr =  6.82E-04,  avg # of iterations =  1.9
     ethr =  6.82E-04,  avg # of iterations =  1.9
     ethr =  6.82E-04,  avg # of iterations =  1.9

     total cpu time spent up to now is        7.4 secs

     total energy              =    -117.93092182 Ry
     estimated scf accuracy    <       0.01150232 Ry

     iteration #  3     ecut=    70.00 Ry     beta= 0.40
     Davidson diagonalization with overlap
     ethr =  6.82E-04,  avg # of iterations =  1.9

     total cpu time spent up to now is        7.6 secs

     total energy              =    -117.93092182 Ry
     estimated scf accuracy    <       0.01150232 Ry

     iteration #  3     ecut=    70.00 Ry     beta= 0.40
     Davidson diagonalization with overlap

     total cpu time spent up to now is        7.8 secs

     total energy              =    -117.93092182 Ry
     estimated scf accuracy    <       0.01150232 Ry

     iteration #  3     ecut=    70.00 Ry     beta= 0.40
     Davidson diagonalization with overlap

     total cpu time spent up to now is        7.8 secs

     total energy              =    -117.93092182 Ry
     estimated scf accuracy    <       0.01150232 Ry

     iteration #  3     ecut=    70.00 Ry     beta= 0.40
     Davidson diagonalization with overlap

     total cpu time spent up to now is        7.8 secs

     total energy              =    -117.93092182 Ry
     estimated scf accuracy    <       0.01150232 Ry

     iteration #  3     ecut=    70.00 Ry     beta= 0.40
     Davidson diagonalization with overlap

     total cpu time spent up to now is        7.9 secs

     total energy              =    -117.93092182 Ry
     estimated scf accuracy    <       0.01150232 Ry

     iteration #  3     ecut=    70.00 Ry     beta= 0.40
     Davidson diagonalization with overlap
     ethr =  8.85E-05,  avg # of iterations =  2.6
     ethr =  8.85E-05,  avg # of iterations =  2.6
     ethr =  8.85E-05,  avg # of iterations =  2.6
     ethr =  8.85E-05,  avg # of iterations =  2.6
     ethr =  8.85E-05,  avg # of iterations =  2.6
     ethr =  8.85E-05,  avg # of iterations =  2.6

     total cpu time spent up to now is        9.7 secs

     total energy              =    -117.93291512 Ry
     estimated scf accuracy    <       0.00064778 Ry

     iteration #  4     ecut=    70.00 Ry     beta= 0.40
     Davidson diagonalization with overlap

     total cpu time spent up to now is        9.9 secs

     total energy              =    -117.93291512 Ry
     estimated scf accuracy    <       0.00064778 Ry

     iteration #  4     ecut=    70.00 Ry     beta= 0.40
     Davidson diagonalization with overlap

     total cpu time spent up to now is       10.1 secs

     total energy              =    -117.93291512 Ry
     estimated scf accuracy    <       0.00064778 Ry

     iteration #  4     ecut=    70.00 Ry     beta= 0.40
     Davidson diagonalization with overlap

     total cpu time spent up to now is       10.1 secs

     total energy              =    -117.93291512 Ry
     estimated scf accuracy    <       0.00064778 Ry

     iteration #  4     ecut=    70.00 Ry     beta= 0.40
     Davidson diagonalization with overlap

     total cpu time spent up to now is       10.1 secs

     total energy              =    -117.93291512 Ry
     estimated scf accuracy    <       0.00064778 Ry

     iteration #  4     ecut=    70.00 Ry     beta= 0.40
     Davidson diagonalization with overlap

     total cpu time spent up to now is       10.2 secs

     total energy              =    -117.93291512 Ry
     estimated scf accuracy    <       0.00064778 Ry

     iteration #  4     ecut=    70.00 Ry     beta= 0.40
     Davidson diagonalization with overlap
     ethr =  4.98E-06,  avg # of iterations =  3.0
     ethr =  4.98E-06,  avg # of iterations =  3.0
     ethr =  4.98E-06,  avg # of iterations =  3.0
     ethr =  4.98E-06,  avg # of iterations =  3.0
     ethr =  4.98E-06,  avg # of iterations =  3.0

     total cpu time spent up to now is       12.0 secs

     total energy              =    -117.93296638 Ry
     estimated scf accuracy    <       0.00007327 Ry

     iteration #  5     ecut=    70.00 Ry     beta= 0.40
     Davidson diagonalization with overlap
     ethr =  4.98E-06,  avg # of iterations =  3.0

     total cpu time spent up to now is       12.2 secs

     total energy              =    -117.93296638 Ry
     estimated scf accuracy    <       0.00007327 Ry

     iteration #  5     ecut=    70.00 Ry     beta= 0.40
     Davidson diagonalization with overlap

     total cpu time spent up to now is       12.3 secs

     total energy              =    -117.93296638 Ry
     estimated scf accuracy    <       0.00007327 Ry

     iteration #  5     ecut=    70.00 Ry     beta= 0.40
     Davidson diagonalization with overlap

     total cpu time spent up to now is       12.4 secs

     total energy              =    -117.93296638 Ry
     estimated scf accuracy    <       0.00007327 Ry

     iteration #  5     ecut=    70.00 Ry     beta= 0.40
     Davidson diagonalization with overlap

     total cpu time spent up to now is       12.5 secs

     total energy              =    -117.93296638 Ry
     estimated scf accuracy    <       0.00007327 Ry

     iteration #  5     ecut=    70.00 Ry     beta= 0.40
     Davidson diagonalization with overlap

     total cpu time spent up to now is       12.5 secs

     total energy              =    -117.93296638 Ry
     estimated scf accuracy    <       0.00007327 Ry

     iteration #  5     ecut=    70.00 Ry     beta= 0.40
     Davidson diagonalization with overlap
     ethr =  5.64E-07,  avg # of iterations =  2.2
     ethr =  5.64E-07,  avg # of iterations =  2.2
     ethr =  5.64E-07,  avg # of iterations =  2.2

     total cpu time spent up to now is       14.3 secs

     total energy              =    -117.93298440 Ry
     estimated scf accuracy    <       0.00001369 Ry

     iteration #  6     ecut=    70.00 Ry     beta= 0.40
     Davidson diagonalization with overlap
     ethr =  5.64E-07,  avg # of iterations =  2.2
     ethr =  5.64E-07,  avg # of iterations =  2.2

     total cpu time spent up to now is       14.4 secs

     total energy              =    -117.93298440 Ry
     estimated scf accuracy    <       0.00001369 Ry

     iteration #  6     ecut=    70.00 Ry     beta= 0.40
     Davidson diagonalization with overlap
     ethr =  5.64E-07,  avg # of iterations =  2.2

     total cpu time spent up to now is       14.7 secs

     total energy              =    -117.93298440 Ry
     estimated scf accuracy    <       0.00001369 Ry

     iteration #  6     ecut=    70.00 Ry     beta= 0.40
     Davidson diagonalization with overlap

     total cpu time spent up to now is       14.7 secs

     total energy              =    -117.93298440 Ry
     estimated scf accuracy    <       0.00001369 Ry

     iteration #  6     ecut=    70.00 Ry     beta= 0.40
     Davidson diagonalization with overlap

     total cpu time spent up to now is       14.8 secs

     total energy              =    -117.93298440 Ry
     estimated scf accuracy    <       0.00001369 Ry

     iteration #  6     ecut=    70.00 Ry     beta= 0.40
     Davidson diagonalization with overlap

     total cpu time spent up to now is       14.9 secs

     total energy              =    -117.93298440 Ry
     estimated scf accuracy    <       0.00001369 Ry

     iteration #  6     ecut=    70.00 Ry     beta= 0.40
     Davidson diagonalization with overlap
     ethr =  1.05E-07,  avg # of iterations =  2.0
     ethr =  1.05E-07,  avg # of iterations =  2.0
     ethr =  1.05E-07,  avg # of iterations =  2.0
     ethr =  1.05E-07,  avg # of iterations =  2.0

     total cpu time spent up to now is       16.3 secs

     total energy              =    -117.93298632 Ry
     estimated scf accuracy    <       0.00000002 Ry

     iteration #  7     ecut=    70.00 Ry     beta= 0.40
     Davidson diagonalization with overlap

     total cpu time spent up to now is       16.3 secs

     total energy              =    -117.93298632 Ry
     estimated scf accuracy    <       0.00000002 Ry

     iteration #  7     ecut=    70.00 Ry     beta= 0.40
     Davidson diagonalization with overlap
     ethr =  1.05E-07,  avg # of iterations =  2.0
     ethr =  1.05E-07,  avg # of iterations =  2.0

     total cpu time spent up to now is       16.6 secs

     total energy              =    -117.93298632 Ry
     estimated scf accuracy    <       0.00000002 Ry

     iteration #  7     ecut=    70.00 Ry     beta= 0.40
     Davidson diagonalization with overlap

     total cpu time spent up to now is       16.6 secs

     total energy              =    -117.93298632 Ry
     estimated scf accuracy    <       0.00000002 Ry

     iteration #  7     ecut=    70.00 Ry     beta= 0.40
     Davidson diagonalization with overlap

     total cpu time spent up to now is       16.8 secs

     total energy              =    -117.93298632 Ry
     estimated scf accuracy    <       0.00000002 Ry

     iteration #  7     ecut=    70.00 Ry     beta= 0.40
     Davidson diagonalization with overlap

     total cpu time spent up to now is       17.0 secs

     total energy              =    -117.93298632 Ry
     estimated scf accuracy    <       0.00000002 Ry

     iteration #  7     ecut=    70.00 Ry     beta= 0.40
     Davidson diagonalization with overlap
     ethr =  1.76E-10,  avg # of iterations =  3.1
     ethr =  1.76E-10,  avg # of iterations =  3.1
     ethr =  1.76E-10,  avg # of iterations =  3.1
     ethr =  1.76E-10,  avg # of iterations =  3.1

     total cpu time spent up to now is       18.7 secs

     total energy              =    -117.93298633 Ry
     estimated scf accuracy    <       0.00000002 Ry

     iteration #  8     ecut=    70.00 Ry     beta= 0.40
     Davidson diagonalization with overlap

     total cpu time spent up to now is       18.7 secs

     total energy              =    -117.93298633 Ry
     estimated scf accuracy    <       0.00000002 Ry

     iteration #  8     ecut=    70.00 Ry     beta= 0.40
     Davidson diagonalization with overlap
     ethr =  1.76E-10,  avg # of iterations =  3.1
     ethr =  1.76E-10,  avg # of iterations =  3.1

     total cpu time spent up to now is       19.1 secs

     total energy              =    -117.93298633 Ry
     estimated scf accuracy    <       0.00000002 Ry

     iteration #  8     ecut=    70.00 Ry     beta= 0.40
     Davidson diagonalization with overlap

     total cpu time spent up to now is       19.1 secs

     total energy              =    -117.93298633 Ry
     estimated scf accuracy    <       0.00000002 Ry

     iteration #  8     ecut=    70.00 Ry     beta= 0.40
     Davidson diagonalization with overlap

     total cpu time spent up to now is       19.2 secs

     total energy              =    -117.93298633 Ry
     estimated scf accuracy    <       0.00000002 Ry

     iteration #  8     ecut=    70.00 Ry     beta= 0.40
     Davidson diagonalization with overlap

     total cpu time spent up to now is       19.4 secs

     total energy              =    -117.93298633 Ry
     estimated scf accuracy    <       0.00000002 Ry

     iteration #  8     ecut=    70.00 Ry     beta= 0.40
     Davidson diagonalization with overlap
     ethr =  1.71E-10,  avg # of iterations =  1.0
     ethr =  1.71E-10,  avg # of iterations =  1.0
     ethr =  1.71E-10,  avg # of iterations =  1.0
     ethr =  1.71E-10,  avg # of iterations =  1.0

     total cpu time spent up to now is       20.6 secs

     total energy              =    -117.93298634 Ry
     estimated scf accuracy    <          2.9E-09 Ry

     iteration #  9     ecut=    70.00 Ry     beta= 0.40
     Davidson diagonalization with overlap

     total cpu time spent up to now is       20.6 secs

     total energy              =    -117.93298634 Ry
     estimated scf accuracy    <          2.9E-09 Ry

     iteration #  9     ecut=    70.00 Ry     beta= 0.40
     Davidson diagonalization with overlap
     ethr =  1.71E-10,  avg # of iterations =  1.0
     ethr =  1.71E-10,  avg # of iterations =  1.0

     total cpu time spent up to now is       20.9 secs

     total energy              =    -117.93298634 Ry
     estimated scf accuracy    <          2.9E-09 Ry

     iteration #  9     ecut=    70.00 Ry     beta= 0.40
     Davidson diagonalization with overlap

     total cpu time spent up to now is       21.0 secs

     total energy              =    -117.93298634 Ry
     estimated scf accuracy    <          2.9E-09 Ry

     iteration #  9     ecut=    70.00 Ry     beta= 0.40
     Davidson diagonalization with overlap

     total cpu time spent up to now is       21.1 secs

     total energy              =    -117.93298634 Ry
     estimated scf accuracy    <          2.9E-09 Ry

     iteration #  9     ecut=    70.00 Ry     beta= 0.40
     Davidson diagonalization with overlap

     total cpu time spent up to now is       21.4 secs

     total energy              =    -117.93298634 Ry
     estimated scf accuracy    <          2.9E-09 Ry

     iteration #  9     ecut=    70.00 Ry     beta= 0.40
     Davidson diagonalization with overlap
     ethr =  2.21E-11,  avg # of iterations =  2.0
     ethr =  2.21E-11,  avg # of iterations =  2.0
     ethr =  2.21E-11,  avg # of iterations =  2.0
     ethr =  2.21E-11,  avg # of iterations =  2.0

     total cpu time spent up to now is       22.8 secs

     total energy              =    -117.93298634 Ry
     estimated scf accuracy    <          7.1E-10 Ry

     iteration # 10     ecut=    70.00 Ry     beta= 0.40
     Davidson diagonalization with overlap
     ethr =  2.21E-11,  avg # of iterations =  2.0

     total cpu time spent up to now is       22.8 secs

     total energy              =    -117.93298634 Ry
     estimated scf accuracy    <          7.1E-10 Ry

     iteration # 10     ecut=    70.00 Ry     beta= 0.40
     Davidson diagonalization with overlap
     ethr =  2.21E-11,  avg # of iterations =  2.0

     total cpu time spent up to now is       23.1 secs

     total energy              =    -117.93298634 Ry
     estimated scf accuracy    <          7.1E-10 Ry

     iteration # 10     ecut=    70.00 Ry     beta= 0.40
     Davidson diagonalization with overlap

     total cpu time spent up to now is       23.2 secs

     total energy              =    -117.93298634 Ry
     estimated scf accuracy    <          7.1E-10 Ry

     iteration # 10     ecut=    70.00 Ry     beta= 0.40
     Davidson diagonalization with overlap

     total cpu time spent up to now is       23.2 secs

     total energy              =    -117.93298634 Ry
     estimated scf accuracy    <          7.1E-10 Ry

     iteration # 10     ecut=    70.00 Ry     beta= 0.40
     Davidson diagonalization with overlap

     total cpu time spent up to now is       23.5 secs

     total energy              =    -117.93298634 Ry
     estimated scf accuracy    <          7.1E-10 Ry

     iteration # 10     ecut=    70.00 Ry     beta= 0.40
     Davidson diagonalization with overlap
     ethr =  5.44E-12,  avg # of iterations =  1.0
     ethr =  5.44E-12,  avg # of iterations =  1.0
     ethr =  5.44E-12,  avg # of iterations =  1.0
     ethr =  5.44E-12,  avg # of iterations =  1.0

     total cpu time spent up to now is       24.6 secs

     total energy              =    -117.93298634 Ry
     estimated scf accuracy    <          2.9E-10 Ry

     iteration # 11     ecut=    70.00 Ry     beta= 0.40
     Davidson diagonalization with overlap
     ethr =  5.44E-12,  avg # of iterations =  1.0

     total cpu time spent up to now is       24.7 secs

     total energy              =    -117.93298634 Ry
     estimated scf accuracy    <          2.9E-10 Ry

     iteration # 11     ecut=    70.00 Ry     beta= 0.40
     Davidson diagonalization with overlap
     ethr =  5.44E-12,  avg # of iterations =  1.0

     total cpu time spent up to now is       25.0 secs

     total energy              =    -117.93298634 Ry
     estimated scf accuracy    <          2.9E-10 Ry

     iteration # 11     ecut=    70.00 Ry     beta= 0.40
     Davidson diagonalization with overlap

     total cpu time spent up to now is       25.0 secs

     total energy              =    -117.93298634 Ry
     estimated scf accuracy    <          2.9E-10 Ry

     iteration # 11     ecut=    70.00 Ry     beta= 0.40
     Davidson diagonalization with overlap

     total cpu time spent up to now is       25.0 secs

     total energy              =    -117.93298634 Ry
     estimated scf accuracy    <          2.9E-10 Ry

     iteration # 11     ecut=    70.00 Ry     beta= 0.40
     Davidson diagonalization with overlap

     total cpu time spent up to now is       25.4 secs

     total energy              =    -117.93298634 Ry
     estimated scf accuracy    <          2.9E-10 Ry

     iteration # 11     ecut=    70.00 Ry     beta= 0.40
     Davidson diagonalization with overlap
     ethr =  2.19E-12,  avg # of iterations =  2.0
     ethr =  2.19E-12,  avg # of iterations =  2.0
     ethr =  2.19E-12,  avg # of iterations =  2.0
     ethr =  2.19E-12,  avg # of iterations =  2.0
     ethr =  2.19E-12,  avg # of iterations =  2.0

     total cpu time spent up to now is       26.7 secs

     End of self-consistent calculation

     Number of k-points >= 100: set verbosity='high' to print the bands.

     the Fermi energy is    18.0588 ev

!    total energy              =    -117.93298634 Ry
     estimated scf accuracy    <          3.9E-12 Ry
     smearing contrib. (-TS)   =       0.00000201 Ry
     internal energy E=F+TS    =    -117.93298834 Ry

     The total energy is F=E-TS. E is the sum of the following terms:
     one-electron contribution =     -15.73601737 Ry
     hartree contribution      =      14.89362788 Ry
     xc contribution           =     -18.44898651 Ry
     ewald contribution        =     -98.64161234 Ry

     convergence has been achieved in  11 iterations

     Writing all to output data dir ./tmp/Nb_eos_6.235.save/

     total cpu time spent up to now is       26.7 secs

     End of self-consistent calculation

     Number of k-points >= 100: set verbosity='high' to print the bands.

     the Fermi energy is    18.0588 ev

!    total energy              =    -117.93298634 Ry
     estimated scf accuracy    <          3.9E-12 Ry
     smearing contrib. (-TS)   =       0.00000201 Ry
     internal energy E=F+TS    =    -117.93298834 Ry

     The total energy is F=E-TS. E is the sum of the following terms:
     one-electron contribution =     -15.73601737 Ry
     hartree contribution      =      14.89362788 Ry
     xc contribution           =     -18.44898651 Ry
     ewald contribution        =     -98.64161234 Ry

     convergence has been achieved in  11 iterations

     Writing all to output data dir ./tmp/Nb_eos_6.235.save/

     init_run     :      1.14s CPU      1.19s WALL (       1 calls)
     electrons    :     23.91s CPU     25.44s WALL (       1 calls)

     Called by init_run:
     wfcinit      :      0.91s CPU      0.95s WALL (       1 calls)
     potinit      :      0.02s CPU      0.02s WALL (       1 calls)
     hinit0       :      0.16s CPU      0.17s WALL (       1 calls)

     Called by electrons:
     c_bands      :     19.10s CPU     20.26s WALL (      12 calls)
     sum_band     :      4.35s CPU      4.64s WALL (      12 calls)
     v_of_rho     :      0.22s CPU      0.24s WALL (      12 calls)
     newd         :      0.24s CPU      0.31s WALL (      12 calls)
     mix_rho      :      0.02s CPU      0.02s WALL (      12 calls)

     Called by c_bands:
     init_us_2    :      0.49s CPU      0.52s WALL (    3625 calls)
     init_us_2:cp :      0.49s CPU      0.52s WALL (    3625 calls)
     cegterg      :     18.35s CPU     19.46s WALL (    1740 calls)

     Called by *egterg:
     cdiaghg      :      0.35s CPU      0.36s WALL (    5306 calls)
     h_psi        :     16.89s CPU     17.82s WALL (    5596 calls)
     s_psi        :      0.31s CPU      0.32s WALL (    5596 calls)
     g_psi        :      0.05s CPU      0.05s WALL (    3711 calls)

     Called by h_psi:
     h_psi:calbec :      0.36s CPU      0.38s WALL (    5596 calls)
     vloc_psi     :     16.18s CPU     17.06s WALL (    5596 calls)
     add_vuspsi   :      0.31s CPU      0.33s WALL (    5596 calls)

     General routines
     calbec       :      0.50s CPU      0.53s WALL (    7336 calls)
     fft          :      0.11s CPU      0.12s WALL (     155 calls)
     ffts         :      0.01s CPU      0.01s WALL (      24 calls)
     fftw         :     16.56s CPU     17.45s WALL (  111168 calls)
     interpolate  :      0.01s CPU      0.02s WALL (      12 calls)


     PWSCF        :     25.12s CPU     26.78s WALL


   This run was terminated on:  23: 1:12   6Mar2026            

=------------------------------------------------------------------------------=
   JOB DONE.
=------------------------------------------------------------------------------=
Note: The following floating-point exceptions are signalling: IEEE_INVALID_FLAG IEEE_DIVIDE_BY_ZERO IEEE_UNDERFLOW_FLAG

     init_run     :      1.04s CPU      1.11s WALL (       1 calls)
     electrons    :     23.84s CPU     25.54s WALL (       1 calls)

     Called by init_run:
     wfcinit      :      0.79s CPU      0.84s WALL (       1 calls)
     potinit      :      0.03s CPU      0.03s WALL (       1 calls)
     hinit0       :      0.18s CPU      0.19s WALL (       1 calls)

     Called by electrons:
     c_bands      :     18.97s CPU     20.21s WALL (      12 calls)
     sum_band     :      4.40s CPU      4.74s WALL (      12 calls)
     v_of_rho     :      0.22s CPU      0.25s WALL (      12 calls)
     newd         :      0.25s CPU      0.34s WALL (      12 calls)
     mix_rho      :      0.02s CPU      0.02s WALL (      12 calls)

     Called by c_bands:
     init_us_2    :      0.49s CPU      0.53s WALL (    3625 calls)
     init_us_2:cp :      0.49s CPU      0.52s WALL (    3625 calls)
     cegterg      :     18.23s CPU     19.41s WALL (    1740 calls)

     Called by *egterg:
     cdiaghg      :      0.34s CPU      0.36s WALL (    5306 calls)
     h_psi        :     16.69s CPU     17.69s WALL (    5596 calls)
     s_psi        :      0.31s CPU      0.32s WALL (    5596 calls)
     g_psi        :      0.05s CPU      0.05s WALL (    3711 calls)

     Called by h_psi:
     h_psi:calbec :      0.36s CPU      0.38s WALL (    5596 calls)
     vloc_psi     :     15.99s CPU     16.94s WALL (    5596 calls)
     add_vuspsi   :      0.31s CPU      0.32s WALL (    5596 calls)

     General routines
     calbec       :      0.50s CPU      0.53s WALL (    7336 calls)
     fft          :      0.12s CPU      0.13s WALL (     155 calls)
     ffts         :      0.01s CPU      0.01s WALL (      24 calls)
     fftw         :     16.48s CPU     17.46s WALL (  111168 calls)
     interpolate  :      0.02s CPU      0.02s WALL (      12 calls)


     PWSCF        :     24.95s CPU     26.80s WALL


   This run was terminated on:  23: 1:12   6Mar2026            

=------------------------------------------------------------------------------=
   JOB DONE.
=------------------------------------------------------------------------------=
Note: The following floating-point exceptions are signalling: IEEE_INVALID_FLAG IEEE_DIVIDE_BY_ZERO IEEE_UNDERFLOW_FLAG

     total cpu time spent up to now is       27.1 secs

     End of self-consistent calculation

     Number of k-points >= 100: set verbosity='high' to print the bands.

     the Fermi energy is    18.0588 ev

!    total energy              =    -117.93298634 Ry
     estimated scf accuracy    <          3.9E-12 Ry
     smearing contrib. (-TS)   =       0.00000201 Ry
     internal energy E=F+TS    =    -117.93298834 Ry

     The total energy is F=E-TS. E is the sum of the following terms:
     one-electron contribution =     -15.73601737 Ry
     hartree contribution      =      14.89362788 Ry
     xc contribution           =     -18.44898651 Ry
     ewald contribution        =     -98.64161234 Ry

     convergence has been achieved in  11 iterations

     Writing all to output data dir ./tmp/Nb_eos_6.235.save/
     ethr =  2.19E-12,  avg # of iterations =  2.0

     total cpu time spent up to now is       27.1 secs

     End of self-consistent calculation

     Number of k-points >= 100: set verbosity='high' to print the bands.

     the Fermi energy is    18.0588 ev

!    total energy              =    -117.93298634 Ry
     estimated scf accuracy    <          3.9E-12 Ry
     smearing contrib. (-TS)   =       0.00000201 Ry
     internal energy E=F+TS    =    -117.93298834 Ry

     The total energy is F=E-TS. E is the sum of the following terms:
     one-electron contribution =     -15.73601737 Ry
     hartree contribution      =      14.89362788 Ry
     xc contribution           =     -18.44898651 Ry
     ewald contribution        =     -98.64161234 Ry

     convergence has been achieved in  11 iterations

     Writing all to output data dir ./tmp/Nb_eos_6.235.save/

     total cpu time spent up to now is       27.1 secs

     End of self-consistent calculation

     Number of k-points >= 100: set verbosity='high' to print the bands.

     the Fermi energy is    18.0588 ev

!    total energy              =    -117.93298634 Ry
     estimated scf accuracy    <          3.9E-12 Ry
     smearing contrib. (-TS)   =       0.00000201 Ry
     internal energy E=F+TS    =    -117.93298834 Ry

     The total energy is F=E-TS. E is the sum of the following terms:
     one-electron contribution =     -15.73601737 Ry
     hartree contribution      =      14.89362788 Ry
     xc contribution           =     -18.44898651 Ry
     ewald contribution        =     -98.64161234 Ry

     convergence has been achieved in  11 iterations

     Writing all to output data dir ./tmp/Nb_eos_6.235.save/

     init_run     :      1.15s CPU      1.23s WALL (       1 calls)
     electrons    :     24.17s CPU     25.79s WALL (       1 calls)

     Called by init_run:
     wfcinit      :      0.92s CPU      0.97s WALL (       1 calls)
     potinit      :      0.02s CPU      0.03s WALL (       1 calls)
     hinit0       :      0.17s CPU      0.19s WALL (       1 calls)

     Called by electrons:
     c_bands      :     19.38s CPU     20.59s WALL (      12 calls)
     sum_band     :      4.32s CPU      4.62s WALL (      12 calls)
     v_of_rho     :      0.22s CPU      0.25s WALL (      12 calls)
     newd         :      0.25s CPU      0.33s WALL (      12 calls)
     mix_rho      :      0.02s CPU      0.02s WALL (      12 calls)

     Called by c_bands:
     init_us_2    :      0.50s CPU      0.53s WALL (    3625 calls)
     init_us_2:cp :      0.50s CPU      0.53s WALL (    3625 calls)
     cegterg      :     18.62s CPU     19.79s WALL (    1740 calls)

     Called by *egterg:
     cdiaghg      :      0.35s CPU      0.37s WALL (    5306 calls)
     h_psi        :     17.12s CPU     18.10s WALL (    5596 calls)
     s_psi        :      0.31s CPU      0.33s WALL (    5596 calls)
     g_psi        :      0.05s CPU      0.05s WALL (    3711 calls)

     Called by h_psi:
     h_psi:calbec :      0.37s CPU      0.39s WALL (    5596 calls)
     vloc_psi     :     16.40s CPU     17.32s WALL (    5596 calls)
     add_vuspsi   :      0.32s CPU      0.34s WALL (    5596 calls)

     General routines
     calbec       :      0.51s CPU      0.53s WALL (    7336 calls)
     fft          :      0.11s CPU      0.12s WALL (     155 calls)
     ffts         :      0.01s CPU      0.01s WALL (      24 calls)
     fftw         :     16.74s CPU     17.66s WALL (  111168 calls)
     interpolate  :      0.02s CPU      0.02s WALL (      12 calls)


     PWSCF        :     25.39s CPU     27.17s WALL


   This run was terminated on:  23: 1:12   6Mar2026            

=------------------------------------------------------------------------------=
   JOB DONE.
=------------------------------------------------------------------------------=
Note: The following floating-point exceptions are signalling: IEEE_INVALID_FLAG IEEE_DIVIDE_BY_ZERO IEEE_UNDERFLOW_FLAG

     init_run     :      1.16s CPU      1.24s WALL (       1 calls)
     electrons    :     24.15s CPU     25.80s WALL (       1 calls)

     Called by init_run:
     wfcinit      :      0.94s CPU      0.99s WALL (       1 calls)
     potinit      :      0.03s CPU      0.03s WALL (       1 calls)
     hinit0       :      0.16s CPU      0.17s WALL (       1 calls)

     Called by electrons:
     c_bands      :     19.38s CPU     20.62s WALL (      12 calls)
     sum_band     :      4.29s CPU      4.59s WALL (      12 calls)
     v_of_rho     :      0.23s CPU      0.27s WALL (      12 calls)
     newd         :      0.25s CPU      0.32s WALL (      12 calls)
     mix_rho      :      0.02s CPU      0.03s WALL (      12 calls)

     Called by c_bands:
     init_us_2    :      0.49s CPU      0.53s WALL (    3625 calls)
     init_us_2:cp :      0.49s CPU      0.53s WALL (    3625 calls)
     cegterg      :     18.62s CPU     19.80s WALL (    1740 calls)

     Called by *egterg:
     cdiaghg      :      0.35s CPU      0.38s WALL (    5306 calls)
     h_psi        :     17.13s CPU     18.12s WALL (    5596 calls)
     s_psi        :      0.32s CPU      0.33s WALL (    5596 calls)
     g_psi        :      0.05s CPU      0.05s WALL (    3711 calls)

     Called by h_psi:
     h_psi:calbec :      0.37s CPU      0.39s WALL (    5596 calls)
     vloc_psi     :     16.40s CPU     17.33s WALL (    5596 calls)
     add_vuspsi   :      0.32s CPU      0.34s WALL (    5596 calls)

     General routines
     calbec       :      0.50s CPU      0.53s WALL (    7336 calls)
     fft          :      0.12s CPU      0.13s WALL (     155 calls)
     ffts         :      0.01s CPU      0.01s WALL (      24 calls)
     fftw         :     16.73s CPU     17.68s WALL (  111168 calls)
     interpolate  :      0.02s CPU      0.02s WALL (      12 calls)


     PWSCF        :     25.39s CPU     27.18s WALL


   This run was terminated on:  23: 1:12   6Mar2026            

=------------------------------------------------------------------------------=
   JOB DONE.
=------------------------------------------------------------------------------=
Note: The following floating-point exceptions are signalling: IEEE_INVALID_FLAG IEEE_DIVIDE_BY_ZERO IEEE_UNDERFLOW_FLAG

     init_run     :      1.15s CPU      1.21s WALL (       1 calls)
     electrons    :     24.15s CPU     25.84s WALL (       1 calls)

     Called by init_run:
     wfcinit      :      0.93s CPU      0.97s WALL (       1 calls)
     potinit      :      0.03s CPU      0.03s WALL (       1 calls)
     hinit0       :      0.16s CPU      0.16s WALL (       1 calls)

     Called by electrons:
     c_bands      :     19.29s CPU     20.56s WALL (      12 calls)
     sum_band     :      4.38s CPU      4.70s WALL (      12 calls)
     v_of_rho     :      0.23s CPU      0.26s WALL (      12 calls)
     newd         :      0.25s CPU      0.32s WALL (      12 calls)
     mix_rho      :      0.02s CPU      0.03s WALL (      12 calls)

     Called by c_bands:
     init_us_2    :      0.50s CPU      0.53s WALL (    3625 calls)
     init_us_2:cp :      0.50s CPU      0.53s WALL (    3625 calls)
     cegterg      :     18.53s CPU     19.74s WALL (    1740 calls)

     Called by *egterg:
     cdiaghg      :      0.35s CPU      0.37s WALL (    5306 calls)
     h_psi        :     17.06s CPU     18.07s WALL (    5596 calls)
     s_psi        :      0.31s CPU      0.33s WALL (    5596 calls)
     g_psi        :      0.05s CPU      0.05s WALL (    3711 calls)

     Called by h_psi:
     h_psi:calbec :      0.36s CPU      0.39s WALL (    5596 calls)
     vloc_psi     :     16.34s CPU     17.29s WALL (    5596 calls)
     add_vuspsi   :      0.32s CPU      0.34s WALL (    5596 calls)

     General routines
     calbec       :      0.50s CPU      0.53s WALL (    7336 calls)
     fft          :      0.12s CPU      0.13s WALL (     155 calls)
     ffts         :      0.01s CPU      0.01s WALL (      24 calls)
     fftw         :     16.77s CPU     17.75s WALL (  111168 calls)
     interpolate  :      0.01s CPU      0.02s WALL (      12 calls)


     PWSCF        :     25.37s CPU     27.19s WALL


   This run was terminated on:  23: 1:12   6Mar2026            

=------------------------------------------------------------------------------=
   JOB DONE.
=------------------------------------------------------------------------------=
Note: The following floating-point exceptions are signalling: IEEE_INVALID_FLAG IEEE_DIVIDE_BY_ZERO IEEE_UNDERFLOW_FLAG

     total cpu time spent up to now is       27.5 secs

     End of self-consistent calculation

     Number of k-points >= 100: set verbosity='high' to print the bands.

     the Fermi energy is    18.0588 ev

!    total energy              =    -117.93298634 Ry
     estimated scf accuracy    <          3.9E-12 Ry
     smearing contrib. (-TS)   =       0.00000201 Ry
     internal energy E=F+TS    =    -117.93298834 Ry

     The total energy is F=E-TS. E is the sum of the following terms:
     one-electron contribution =     -15.73601737 Ry
     hartree contribution      =      14.89362788 Ry
     xc contribution           =     -18.44898651 Ry
     ewald contribution        =     -98.64161234 Ry

     convergence has been achieved in  11 iterations

     Writing all to output data dir ./tmp/Nb_eos_6.235.save/

     init_run     :      1.20s CPU      1.30s WALL (       1 calls)
     electrons    :     24.39s CPU     26.09s WALL (       1 calls)

     Called by init_run:
     wfcinit      :      0.96s CPU      1.03s WALL (       1 calls)
     potinit      :      0.03s CPU      0.03s WALL (       1 calls)
     hinit0       :      0.17s CPU      0.19s WALL (       1 calls)

     Called by electrons:
     c_bands      :     19.63s CPU     20.91s WALL (      12 calls)
     sum_band     :      4.29s CPU      4.62s WALL (      12 calls)
     v_of_rho     :      0.23s CPU      0.26s WALL (      12 calls)
     newd         :      0.24s CPU      0.31s WALL (      12 calls)
     mix_rho      :      0.02s CPU      0.03s WALL (      12 calls)

     Called by c_bands:
     init_us_2    :      0.50s CPU      0.52s WALL (    3625 calls)
     init_us_2:cp :      0.50s CPU      0.52s WALL (    3625 calls)
     cegterg      :     18.86s CPU     20.09s WALL (    1740 calls)

     Called by *egterg:
     cdiaghg      :      0.35s CPU      0.38s WALL (    5306 calls)
     h_psi        :     17.38s CPU     18.42s WALL (    5596 calls)
     s_psi        :      0.32s CPU      0.34s WALL (    5596 calls)
     g_psi        :      0.05s CPU      0.05s WALL (    3711 calls)

     Called by h_psi:
     h_psi:calbec :      0.37s CPU      0.39s WALL (    5596 calls)
     vloc_psi     :     16.65s CPU     17.63s WALL (    5596 calls)
     add_vuspsi   :      0.32s CPU      0.34s WALL (    5596 calls)

     General routines
     calbec       :      0.50s CPU      0.53s WALL (    7336 calls)
     fft          :      0.12s CPU      0.13s WALL (     155 calls)
     ffts         :      0.01s CPU      0.01s WALL (      24 calls)
     fftw         :     16.92s CPU     17.92s WALL (  111168 calls)
     interpolate  :      0.02s CPU      0.02s WALL (      12 calls)


     PWSCF        :     25.66s CPU     27.51s WALL


   This run was terminated on:  23: 1:13   6Mar2026            

=------------------------------------------------------------------------------=
   JOB DONE.
=------------------------------------------------------------------------------=
Note: The following floating-point exceptions are signalling: IEEE_INVALID_FLAG IEEE_DIVIDE_BY_ZERO IEEE_UNDERFLOW_FLAG
