
     Program PWSCF v.7.2 starts on  6Mar2026 at 23:14:51 

     This program is part of the open-source Quantum ESPRESSO suite
     for quantum simulation of materials; please cite
         "P. Giannozzi et al., J. Phys.:Condens. Matter 21 395502 (2009);
         "P. Giannozzi et al., J. Phys.:Condens. Matter 29 465901 (2017);
         "P. Giannozzi et al., J. Chem. Phys. 152 154105 (2020);
          URL http://www.quantum-espresso.org", 
     in publications or presentations arising from this work. More details at
     http://www.quantum-espresso.org/quote

     Serial multi-threaded version, running on    1 processor cores
     0 MiB available memory on the printing compute node when the environment starts


     Program PWSCF v.7.2 starts on  6Mar2026 at 23:14:51 

     This program is part of the open-source Quantum ESPRESSO suite
     for quantum simulation of materials; please cite
         "P. Giannozzi et al., J. Phys.:Condens. Matter 21 395502 (2009);
         "P. Giannozzi et al., J. Phys.:Condens. Matter 29 465901 (2017);
         "P. Giannozzi et al., J. Chem. Phys. 152 154105 (2020);
          URL http://www.quantum-espresso.org", 
     in publications or presentations arising from this work. More details at
     http://www.quantum-espresso.org/quote

     Serial multi-threaded version, running on    1 processor cores
     0 MiB available memory on the printing compute node when the environment starts

     Reading input from results/eos/Nb_eos_6.15.in
     Reading input from results/eos/Nb_eos_6.15.in

     Program PWSCF v.7.2 starts on  6Mar2026 at 23:14:51 

     This program is part of the open-source Quantum ESPRESSO suite
     for quantum simulation of materials; please cite
         "P. Giannozzi et al., J. Phys.:Condens. Matter 21 395502 (2009);
         "P. Giannozzi et al., J. Phys.:Condens. Matter 29 465901 (2017);
         "P. Giannozzi et al., J. Chem. Phys. 152 154105 (2020);
          URL http://www.quantum-espresso.org", 
     in publications or presentations arising from this work. More details at
     http://www.quantum-espresso.org/quote

     Serial multi-threaded version, running on    1 processor cores
     0 MiB available memory on the printing compute node when the environment starts

     Reading input from results/eos/Nb_eos_6.15.in

     Program PWSCF v.7.2 starts on  6Mar2026 at 23:14:51 

     This program is part of the open-source Quantum ESPRESSO suite
     for quantum simulation of materials; please cite
         "P. Giannozzi et al., J. Phys.:Condens. Matter 21 395502 (2009);
         "P. Giannozzi et al., J. Phys.:Condens. Matter 29 465901 (2017);
         "P. Giannozzi et al., J. Chem. Phys. 152 154105 (2020);
          URL http://www.quantum-espresso.org", 
     in publications or presentations arising from this work. More details at
     http://www.quantum-espresso.org/quote

     Serial multi-threaded version, running on    1 processor cores
     0 MiB available memory on the printing compute node when the environment starts

     Reading input from results/eos/Nb_eos_6.15.in

     Program PWSCF v.7.2 starts on  6Mar2026 at 23:14:51 

     This program is part of the open-source Quantum ESPRESSO suite
     for quantum simulation of materials; please cite
         "P. Giannozzi et al., J. Phys.:Condens. Matter 21 395502 (2009);
         "P. Giannozzi et al., J. Phys.:Condens. Matter 29 465901 (2017);
         "P. Giannozzi et al., J. Chem. Phys. 152 154105 (2020);
          URL http://www.quantum-espresso.org", 
     in publications or presentations arising from this work. More details at
     http://www.quantum-espresso.org/quote

     Serial multi-threaded version, running on    1 processor cores
     0 MiB available memory on the printing compute node when the environment starts

     Reading input from results/eos/Nb_eos_6.15.in

     Current dimensions of program PWSCF are:
     Max number of different atomic species (ntypx) = 10
     Max number of k-points (npk) =  40000
     Max angular momentum in pseudopotentials (lmaxx) =  4

     Current dimensions of program PWSCF are:
     Max number of different atomic species (ntypx) = 10
     Max number of k-points (npk) =  40000
     Max angular momentum in pseudopotentials (lmaxx) =  4

     Program PWSCF v.7.2 starts on  6Mar2026 at 23:14:51 

     This program is part of the open-source Quantum ESPRESSO suite
     for quantum simulation of materials; please cite
         "P. Giannozzi et al., J. Phys.:Condens. Matter 21 395502 (2009);
         "P. Giannozzi et al., J. Phys.:Condens. Matter 29 465901 (2017);
         "P. Giannozzi et al., J. Chem. Phys. 152 154105 (2020);
          URL http://www.quantum-espresso.org", 
     in publications or presentations arising from this work. More details at
     http://www.quantum-espresso.org/quote

     Serial multi-threaded version, running on    1 processor cores
     0 MiB available memory on the printing compute node when the environment starts

     Reading input from results/eos/Nb_eos_6.15.in

     Current dimensions of program PWSCF are:
     Max number of different atomic species (ntypx) = 10
     Max number of k-points (npk) =  40000
     Max angular momentum in pseudopotentials (lmaxx) =  4

     Current dimensions of program PWSCF are:
     Max number of different atomic species (ntypx) = 10
     Max number of k-points (npk) =  40000
     Max angular momentum in pseudopotentials (lmaxx) =  4

     Current dimensions of program PWSCF are:
     Max number of different atomic species (ntypx) = 10
     Max number of k-points (npk) =  40000
     Max angular momentum in pseudopotentials (lmaxx) =  4

     Current dimensions of program PWSCF are:
     Max number of different atomic species (ntypx) = 10
     Max number of k-points (npk) =  40000
     Max angular momentum in pseudopotentials (lmaxx) =  4


     G-vector sticks info
     --------------------
     sticks:   dense  smooth     PW     G-vecs:    dense   smooth      PW
     Sum        1195     603    181                26107     9213    1601

     Using Slab Decomposition



     bravais-lattice index     =            3
     lattice parameter (alat)  =       6.1500  a.u.
     unit-cell volume          =     116.3042 (a.u.)^3
     number of atoms/cell      =            1
     number of atomic types    =            1
     number of electrons       =        13.00
     number of Kohn-Sham states=           11
     kinetic-energy cutoff     =      70.0000  Ry
     charge density cutoff     =     560.0000  Ry
     scf convergence threshold =      1.0E-10
     mixing beta               =       0.4000
     number of iterations used =            8  plain     mixing
     Exchange-correlation= SLA  PW   PBE  PBE
                           (   1   4   3   4   0   0   0)

     celldm(1)=   6.150000  celldm(2)=   0.000000  celldm(3)=   0.000000
     celldm(4)=   0.000000  celldm(5)=   0.000000  celldm(6)=   0.000000

     crystal axes: (cart. coord. in units of alat)
               a(1) = (   0.500000   0.500000   0.500000 )  
               a(2) = (  -0.500000   0.500000   0.500000 )  
               a(3) = (  -0.500000  -0.500000   0.500000 )  

     reciprocal axes: (cart. coord. in units 2 pi/alat)
               b(1) = (  1.000000  0.000000  1.000000 )  
               b(2) = ( -1.000000  1.000000  0.000000 )  
               b(3) = (  0.000000 -1.000000  1.000000 )  


     PseudoPot. # 1 for Nb read from file:
     ./pseudo/nb_pbe_v1.uspp.F.UPF
     MD5 check sum: 573aab8a2fa660278ed4a62cd769473f
     Pseudo is Ultrasoft + core correction, Zval = 13.0
     Generated by new atomic code, or converted to UPF format
     Using radial grid of  887 points,  6 beta functions with: 
                l(1) =   0
                l(2) =   0
                l(3) =   1
                l(4) =   1
                l(5) =   2
                l(6) =   2
     Q(r) pseudized with  6 coefficients,  rinner =    1.000   1.000   1.000
                                                       1.000   1.000

     atomic species   valence    mass     pseudopotential
        Nb            13.00    92.90600     Nb( 1.00)

     48 Sym. Ops., with inversion, found



   Cartesian axes

     site n.     atom                  positions (alat units)
         1           Nb  tau(   1) = (   0.0000000   0.0000000   0.0000000  )

     number of k points=   145  Marzari-Vanderbilt smearing, width (Ry)=  0.0300

     Number of k-points >= 100: set verbosity='high' to print them.

     Dense  grid:    26107 G-vectors     FFT dimensions: (  45,  45,  45)

     Smooth grid:     9213 G-vectors     FFT dimensions: (  30,  30,  30)

     Estimated max dynamical RAM per process >     121.87 MB


     G-vector sticks info
     --------------------
     sticks:   dense  smooth     PW     G-vecs:    dense   smooth      PW
     Sum        1195     603    181                26107     9213    1601

     Using Slab Decomposition



     bravais-lattice index     =            3
     lattice parameter (alat)  =       6.1500  a.u.
     unit-cell volume          =     116.3042 (a.u.)^3
     number of atoms/cell      =            1
     number of atomic types    =            1
     number of electrons       =        13.00
     number of Kohn-Sham states=           11
     kinetic-energy cutoff     =      70.0000  Ry
     charge density cutoff     =     560.0000  Ry
     scf convergence threshold =      1.0E-10
     mixing beta               =       0.4000
     number of iterations used =            8  plain     mixing
     Exchange-correlation= SLA  PW   PBE  PBE
                           (   1   4   3   4   0   0   0)

     celldm(1)=   6.150000  celldm(2)=   0.000000  celldm(3)=   0.000000
     celldm(4)=   0.000000  celldm(5)=   0.000000  celldm(6)=   0.000000

     crystal axes: (cart. coord. in units of alat)
               a(1) = (   0.500000   0.500000   0.500000 )  
               a(2) = (  -0.500000   0.500000   0.500000 )  
               a(3) = (  -0.500000  -0.500000   0.500000 )  

     reciprocal axes: (cart. coord. in units 2 pi/alat)
               b(1) = (  1.000000  0.000000  1.000000 )  
               b(2) = ( -1.000000  1.000000  0.000000 )  
               b(3) = (  0.000000 -1.000000  1.000000 )  


     PseudoPot. # 1 for Nb read from file:
     ./pseudo/nb_pbe_v1.uspp.F.UPF
     MD5 check sum: 573aab8a2fa660278ed4a62cd769473f
     Pseudo is Ultrasoft + core correction, Zval = 13.0
     Generated by new atomic code, or converted to UPF format
     Using radial grid of  887 points,  6 beta functions with: 
                l(1) =   0
                l(2) =   0
                l(3) =   1
                l(4) =   1
                l(5) =   2
                l(6) =   2
     Q(r) pseudized with  6 coefficients,  rinner =    1.000   1.000   1.000
                                                       1.000   1.000

     atomic species   valence    mass     pseudopotential
        Nb            13.00    92.90600     Nb( 1.00)

     48 Sym. Ops., with inversion, found



   Cartesian axes

     site n.     atom                  positions (alat units)
         1           Nb  tau(   1) = (   0.0000000   0.0000000   0.0000000  )

     number of k points=   145  Marzari-Vanderbilt smearing, width (Ry)=  0.0300

     Number of k-points >= 100: set verbosity='high' to print them.

     Dense  grid:    26107 G-vectors     FFT dimensions: (  45,  45,  45)

     Smooth grid:     9213 G-vectors     FFT dimensions: (  30,  30,  30)

     Estimated max dynamical RAM per process >     121.87 MB


     G-vector sticks info
     --------------------
     sticks:   dense  smooth     PW     G-vecs:    dense   smooth      PW
     Sum        1195     603    181                26107     9213    1601

     Using Slab Decomposition



     bravais-lattice index     =            3
     lattice parameter (alat)  =       6.1500  a.u.
     unit-cell volume          =     116.3042 (a.u.)^3
     number of atoms/cell      =            1
     number of atomic types    =            1
     number of electrons       =        13.00
     number of Kohn-Sham states=           11
     kinetic-energy cutoff     =      70.0000  Ry
     charge density cutoff     =     560.0000  Ry
     scf convergence threshold =      1.0E-10
     mixing beta               =       0.4000
     number of iterations used =            8  plain     mixing
     Exchange-correlation= SLA  PW   PBE  PBE
                           (   1   4   3   4   0   0   0)

     celldm(1)=   6.150000  celldm(2)=   0.000000  celldm(3)=   0.000000
     celldm(4)=   0.000000  celldm(5)=   0.000000  celldm(6)=   0.000000

     crystal axes: (cart. coord. in units of alat)
               a(1) = (   0.500000   0.500000   0.500000 )  
               a(2) = (  -0.500000   0.500000   0.500000 )  
               a(3) = (  -0.500000  -0.500000   0.500000 )  

     reciprocal axes: (cart. coord. in units 2 pi/alat)
               b(1) = (  1.000000  0.000000  1.000000 )  
               b(2) = ( -1.000000  1.000000  0.000000 )  
               b(3) = (  0.000000 -1.000000  1.000000 )  


     PseudoPot. # 1 for Nb read from file:
     ./pseudo/nb_pbe_v1.uspp.F.UPF
     MD5 check sum: 573aab8a2fa660278ed4a62cd769473f
     Pseudo is Ultrasoft + core correction, Zval = 13.0
     Generated by new atomic code, or converted to UPF format
     Using radial grid of  887 points,  6 beta functions with: 
                l(1) =   0
                l(2) =   0
                l(3) =   1
                l(4) =   1
                l(5) =   2
                l(6) =   2
     Q(r) pseudized with  6 coefficients,  rinner =    1.000   1.000   1.000
                                                       1.000   1.000

     atomic species   valence    mass     pseudopotential

        Nb            13.00    92.90600     Nb( 1.00)

     48 Sym. Ops., with inversion, found



   Cartesian axes

     site n.     atom                  positions (alat units)
         1           Nb  tau(   1) = (   0.0000000   0.0000000   0.0000000  )

     number of k points=   145  Marzari-Vanderbilt smearing, width (Ry)=  0.0300

     Number of k-points >= 100: set verbosity='high' to print them.

     Dense  grid:    26107 G-vectors     FFT dimensions: (  45,  45,  45)

     Smooth grid:     9213 G-vectors     FFT dimensions: (  30,  30,  30)

     Estimated max dynamical RAM per process >     121.87 MB

     G-vector sticks info
     --------------------
     sticks:   dense  smooth     PW     G-vecs:    dense   smooth      PW
     Sum        1195     603    181                26107     9213    1601

     Using Slab Decomposition



     bravais-lattice index     =            3
     lattice parameter (alat)  =       6.1500  a.u.
     unit-cell volume          =     116.3042 (a.u.)^3
     number of atoms/cell      =            1
     number of atomic types    =            1
     number of electrons       =        13.00
     number of Kohn-Sham states=           11
     kinetic-energy cutoff     =      70.0000  Ry
     charge density cutoff     =     560.0000  Ry
     scf convergence threshold =      1.0E-10
     mixing beta               =       0.4000
     number of iterations used =            8  plain     mixing
     Exchange-correlation= SLA  PW   PBE  PBE
                           (   1   4   3   4   0   0   0)

     celldm(1)=   6.150000  celldm(2)=   0.000000  celldm(3)=   0.000000
     celldm(4)=   0.000000  celldm(5)=   0.000000  celldm(6)=   0.000000

     crystal axes: (cart. coord. in units of alat)
               a(1) = (   0.500000   0.500000   0.500000 )  
               a(2) = (  -0.500000   0.500000   0.500000 )  
               a(3) = (  -0.500000  -0.500000   0.500000 )  

     reciprocal axes: (cart. coord. in units 2 pi/alat)
               b(1) = (  1.000000  0.000000  1.000000 )  
               b(2) = ( -1.000000  1.000000  0.000000 )  
               b(3) = (  0.000000 -1.000000  1.000000 )  


     PseudoPot. # 1 for Nb read from file:
     ./pseudo/nb_pbe_v1.uspp.F.UPF
     MD5 check sum: 573aab8a2fa660278ed4a62cd769473f
     Pseudo is Ultrasoft + core correction, Zval = 13.0
     Generated by new atomic code, or converted to UPF format
     Using radial grid of  887 points,  6 beta functions with: 
                l(1) =   0
                l(2) =   0
                l(3) =   1
                l(4) =   1
                l(5) =   2
                l(6) =   2
     Q(r) pseudized with  6 coefficients,  rinner =    1.000   1.000   1.000
                                                       1.000   1.000

     atomic species   valence    mass     pseudopotential
        Nb            13.00    92.90600     Nb( 1.00)

     48 Sym. Ops., with inversion, found



   Cartesian axes

     site n.     atom                  positions (alat units)
         1           Nb  tau(   1) = (   0.0000000   0.0000000   0.0000000  )

     number of k points=   145  Marzari-Vanderbilt smearing, width (Ry)=  0.0300

     Number of k-points >= 100: set verbosity='high' to print them.

     Dense  grid:    26107 G-vectors     FFT dimensions: (  45,  45,  45)

     Smooth grid:     9213 G-vectors     FFT dimensions: (  30,  30,  30)

     Estimated max dynamical RAM per process >     121.87 MB


     G-vector sticks info
     --------------------
     sticks:   dense  smooth     PW     G-vecs:    dense   smooth      PW
     Sum        1195     603    181                26107     9213    1601

     Using Slab Decomposition



     bravais-lattice index     =            3
     lattice parameter (alat)  =       6.1500  a.u.
     unit-cell volume          =     116.3042 (a.u.)^3
     number of atoms/cell      =            1
     number of atomic types    =            1
     number of electrons       =        13.00
     number of Kohn-Sham states=           11
     kinetic-energy cutoff     =      70.0000  Ry
     charge density cutoff     =     560.0000  Ry
     scf convergence threshold =      1.0E-10
     mixing beta               =       0.4000
     number of iterations used =            8  plain     mixing
     Exchange-correlation= SLA  PW   PBE  PBE
                           (   1   4   3   4   0   0   0)

     celldm(1)=   6.150000  celldm(2)=   0.000000  celldm(3)=   0.000000
     celldm(4)=   0.000000  celldm(5)=   0.000000  celldm(6)=   0.000000

     crystal axes: (cart. coord. in units of alat)
               a(1) = (   0.500000   0.500000   0.500000 )  
               a(2) = (  -0.500000   0.500000   0.500000 )  
               a(3) = (  -0.500000  -0.500000   0.500000 )  

     reciprocal axes: (cart. coord. in units 2 pi/alat)
               b(1) = (  1.000000  0.000000  1.000000 )  
               b(2) = ( -1.000000  1.000000  0.000000 )  
               b(3) = (  0.000000 -1.000000  1.000000 )  


     PseudoPot. # 1 for Nb read from file:
     ./pseudo/nb_pbe_v1.uspp.F.UPF
     MD5 check sum: 573aab8a2fa660278ed4a62cd769473f
     Pseudo is Ultrasoft + core correction, Zval = 13.0
     Generated by new atomic code, or converted to UPF format
     Using radial grid of  887 points,  6 beta functions with: 
                l(1) =   0
                l(2) =   0
                l(3) =   1
                l(4) =   1
                l(5) =   2
                l(6) =   2
     Q(r) pseudized with  6 coefficients,  rinner =    1.000   1.000   1.000
                                                       1.000   1.000

     atomic species   valence    mass     pseudopotential
        Nb            13.00    92.90600     Nb( 1.00)

     48 Sym. Ops., with inversion, found



   Cartesian axes

     site n.     atom                  positions (alat units)
         1           Nb  tau(   1) = (   0.0000000   0.0000000   0.0000000  )

     number of k points=   145  Marzari-Vanderbilt smearing, width (Ry)=  0.0300

     Number of k-points >= 100: set verbosity='high' to print them.

     Dense  grid:    26107 G-vectors     FFT dimensions: (  45,  45,  45)

     Smooth grid:     9213 G-vectors     FFT dimensions: (  30,  30,  30)

     Estimated max dynamical RAM per process >     121.87 MB


     G-vector sticks info
     --------------------
     sticks:   dense  smooth     PW     G-vecs:    dense   smooth      PW
     Sum        1195     603    181                26107     9213    1601

     Using Slab Decomposition



     bravais-lattice index     =            3
     lattice parameter (alat)  =       6.1500  a.u.
     unit-cell volume          =     116.3042 (a.u.)^3
     number of atoms/cell      =            1
     number of atomic types    =            1
     number of electrons       =        13.00
     number of Kohn-Sham states=           11
     kinetic-energy cutoff     =      70.0000  Ry
     charge density cutoff     =     560.0000  Ry
     scf convergence threshold =      1.0E-10
     mixing beta               =       0.4000
     number of iterations used =            8  plain     mixing
     Exchange-correlation= SLA  PW   PBE  PBE
                           (   1   4   3   4   0   0   0)

     celldm(1)=   6.150000  celldm(2)=   0.000000  celldm(3)=   0.000000
     celldm(4)=   0.000000  celldm(5)=   0.000000  celldm(6)=   0.000000

     crystal axes: (cart. coord. in units of alat)
               a(1) = (   0.500000   0.500000   0.500000 )  
               a(2) = (  -0.500000   0.500000   0.500000 )  
               a(3) = (  -0.500000  -0.500000   0.500000 )  

     reciprocal axes: (cart. coord. in units 2 pi/alat)
               b(1) = (  1.000000  0.000000  1.000000 )  
               b(2) = ( -1.000000  1.000000  0.000000 )  
               b(3) = (  0.000000 -1.000000  1.000000 )  


     PseudoPot. # 1 for Nb read from file:
     ./pseudo/nb_pbe_v1.uspp.F.UPF
     MD5 check sum: 573aab8a2fa660278ed4a62cd769473f
     Pseudo is Ultrasoft + core correction, Zval = 13.0
     Generated by new atomic code, or converted to UPF format
     Using radial grid of  887 points,  6 beta functions with: 
                l(1) =   0
                l(2) =   0
                l(3) =   1
                l(4) =   1
                l(5) =   2
                l(6) =   2
     Q(r) pseudized with  6 coefficients,  rinner =    1.000   1.000   1.000
                                                       1.000   1.000

     atomic species   valence    mass     pseudopotential
        Nb            13.00    92.90600     Nb( 1.00)

     48 Sym. Ops., with inversion, found



   Cartesian axes

     site n.     atom                  positions (alat units)
         1           Nb  tau(   1) = (   0.0000000   0.0000000   0.0000000  )

     number of k points=   145  Marzari-Vanderbilt smearing, width (Ry)=  0.0300

     Number of k-points >= 100: set verbosity='high' to print them.

     Dense  grid:    26107 G-vectors     FFT dimensions: (  45,  45,  45)

     Smooth grid:     9213 G-vectors     FFT dimensions: (  30,  30,  30)

     Estimated max dynamical RAM per process >     121.87 MB

     Initial potential from superposition of free atoms

     starting charge      12.9973, renormalised to      13.0000

     Initial potential from superposition of free atoms

     Initial potential from superposition of free atoms

     starting charge      12.9973, renormalised to      13.0000

     starting charge      12.9973, renormalised to      13.0000

     Initial potential from superposition of free atoms

     starting charge      12.9973, renormalised to      13.0000

     Initial potential from superposition of free atoms

     Initial potential from superposition of free atoms

     starting charge      12.9973, renormalised to      13.0000

     starting charge      12.9973, renormalised to      13.0000
     Starting wfcs are   13 randomized atomic wfcs
     Starting wfcs are   13 randomized atomic wfcs
     Starting wfcs are   13 randomized atomic wfcs
     Starting wfcs are   13 randomized atomic wfcs
     Starting wfcs are   13 randomized atomic wfcs
     Starting wfcs are   13 randomized atomic wfcs

     total cpu time spent up to now is        1.1 secs

     Self-consistent Calculation

     iteration #  1     ecut=    70.00 Ry     beta= 0.40
     Davidson diagonalization with overlap

     total cpu time spent up to now is        1.1 secs

     Self-consistent Calculation

     iteration #  1     ecut=    70.00 Ry     beta= 0.40
     Davidson diagonalization with overlap

     total cpu time spent up to now is        1.2 secs

     Self-consistent Calculation

     iteration #  1     ecut=    70.00 Ry     beta= 0.40
     Davidson diagonalization with overlap

     total cpu time spent up to now is        1.2 secs

     Self-consistent Calculation

     iteration #  1     ecut=    70.00 Ry     beta= 0.40
     Davidson diagonalization with overlap

     total cpu time spent up to now is        1.2 secs

     Self-consistent Calculation

     iteration #  1     ecut=    70.00 Ry     beta= 0.40
     Davidson diagonalization with overlap

     total cpu time spent up to now is        1.2 secs

     Self-consistent Calculation

     iteration #  1     ecut=    70.00 Ry     beta= 0.40
     Davidson diagonalization with overlap
     ethr =  1.00E-02,  avg # of iterations =  3.6
     ethr =  1.00E-02,  avg # of iterations =  3.6
     ethr =  1.00E-02,  avg # of iterations =  3.6
     ethr =  1.00E-02,  avg # of iterations =  3.6
     ethr =  1.00E-02,  avg # of iterations =  3.6
     ethr =  1.00E-02,  avg # of iterations =  3.6

     Threshold (ethr) on eigenvalues was too large:
     Diagonalizing with lowered threshold

     Davidson diagonalization with overlap

     Threshold (ethr) on eigenvalues was too large:
     Diagonalizing with lowered threshold

     Davidson diagonalization with overlap

     Threshold (ethr) on eigenvalues was too large:
     Diagonalizing with lowered threshold

     Davidson diagonalization with overlap

     Threshold (ethr) on eigenvalues was too large:
     Diagonalizing with lowered threshold

     Davidson diagonalization with overlap

     Threshold (ethr) on eigenvalues was too large:
     Diagonalizing with lowered threshold

     Davidson diagonalization with overlap

     Threshold (ethr) on eigenvalues was too large:
     Diagonalizing with lowered threshold

     Davidson diagonalization with overlap
     ethr =  6.11E-04,  avg # of iterations =  1.3
     ethr =  6.11E-04,  avg # of iterations =  1.3
     ethr =  6.11E-04,  avg # of iterations =  1.3
     ethr =  6.11E-04,  avg # of iterations =  1.3
     ethr =  6.11E-04,  avg # of iterations =  1.3
     ethr =  6.11E-04,  avg # of iterations =  1.3

     total cpu time spent up to now is        5.1 secs

     total energy              =    -117.92711851 Ry
     estimated scf accuracy    <       0.08120948 Ry

     iteration #  2     ecut=    70.00 Ry     beta= 0.40
     Davidson diagonalization with overlap

     total cpu time spent up to now is        5.1 secs

     total energy              =    -117.92711851 Ry
     estimated scf accuracy    <       0.08120948 Ry

     iteration #  2     ecut=    70.00 Ry     beta= 0.40
     Davidson diagonalization with overlap

     total cpu time spent up to now is        5.2 secs

     total energy              =    -117.92711851 Ry
     estimated scf accuracy    <       0.08120948 Ry

     iteration #  2     ecut=    70.00 Ry     beta= 0.40
     Davidson diagonalization with overlap

     total cpu time spent up to now is        5.2 secs

     total energy              =    -117.92711851 Ry
     estimated scf accuracy    <       0.08120948 Ry

     iteration #  2     ecut=    70.00 Ry     beta= 0.40
     Davidson diagonalization with overlap

     total cpu time spent up to now is        5.2 secs

     total energy              =    -117.92711851 Ry
     estimated scf accuracy    <       0.08120948 Ry

     iteration #  2     ecut=    70.00 Ry     beta= 0.40
     Davidson diagonalization with overlap

     total cpu time spent up to now is        5.2 secs

     total energy              =    -117.92711851 Ry
     estimated scf accuracy    <       0.08120948 Ry

     iteration #  2     ecut=    70.00 Ry     beta= 0.40
     Davidson diagonalization with overlap
     ethr =  6.25E-04,  avg # of iterations =  1.8
     ethr =  6.25E-04,  avg # of iterations =  1.8
     ethr =  6.25E-04,  avg # of iterations =  1.8
     ethr =  6.25E-04,  avg # of iterations =  1.8
     ethr =  6.25E-04,  avg # of iterations =  1.8
     ethr =  6.25E-04,  avg # of iterations =  1.8

     total cpu time spent up to now is        6.9 secs

     total energy              =    -117.92928773 Ry
     estimated scf accuracy    <       0.01102789 Ry

     iteration #  3     ecut=    70.00 Ry     beta= 0.40
     Davidson diagonalization with overlap

     total cpu time spent up to now is        6.9 secs

     total energy              =    -117.92928773 Ry
     estimated scf accuracy    <       0.01102789 Ry

     iteration #  3     ecut=    70.00 Ry     beta= 0.40
     Davidson diagonalization with overlap

     total cpu time spent up to now is        6.9 secs

     total energy              =    -117.92928773 Ry
     estimated scf accuracy    <       0.01102789 Ry

     iteration #  3     ecut=    70.00 Ry     beta= 0.40
     Davidson diagonalization with overlap

     total cpu time spent up to now is        7.0 secs

     total energy              =    -117.92928773 Ry
     estimated scf accuracy    <       0.01102789 Ry

     iteration #  3     ecut=    70.00 Ry     beta= 0.40
     Davidson diagonalization with overlap

     total cpu time spent up to now is        7.1 secs

     total energy              =    -117.92928773 Ry
     estimated scf accuracy    <       0.01102789 Ry

     iteration #  3     ecut=    70.00 Ry     beta= 0.40
     Davidson diagonalization with overlap

     total cpu time spent up to now is        7.1 secs

     total energy              =    -117.92928773 Ry
     estimated scf accuracy    <       0.01102789 Ry

     iteration #  3     ecut=    70.00 Ry     beta= 0.40
     Davidson diagonalization with overlap
     ethr =  8.48E-05,  avg # of iterations =  2.6
     ethr =  8.48E-05,  avg # of iterations =  2.6
     ethr =  8.48E-05,  avg # of iterations =  2.6
     ethr =  8.48E-05,  avg # of iterations =  2.6
     ethr =  8.48E-05,  avg # of iterations =  2.6
     ethr =  8.48E-05,  avg # of iterations =  2.6

     total cpu time spent up to now is        9.0 secs

     total energy              =    -117.93119114 Ry
     estimated scf accuracy    <       0.00059358 Ry

     iteration #  4     ecut=    70.00 Ry     beta= 0.40
     Davidson diagonalization with overlap

     total cpu time spent up to now is        9.0 secs

     total energy              =    -117.93119114 Ry
     estimated scf accuracy    <       0.00059358 Ry

     iteration #  4     ecut=    70.00 Ry     beta= 0.40
     Davidson diagonalization with overlap

     total cpu time spent up to now is        9.1 secs

     total energy              =    -117.93119114 Ry
     estimated scf accuracy    <       0.00059358 Ry

     iteration #  4     ecut=    70.00 Ry     beta= 0.40
     Davidson diagonalization with overlap

     total cpu time spent up to now is        9.1 secs

     total energy              =    -117.93119114 Ry
     estimated scf accuracy    <       0.00059358 Ry

     iteration #  4     ecut=    70.00 Ry     beta= 0.40
     Davidson diagonalization with overlap

     total cpu time spent up to now is        9.1 secs

     total energy              =    -117.93119114 Ry
     estimated scf accuracy    <       0.00059358 Ry

     iteration #  4     ecut=    70.00 Ry     beta= 0.40
     Davidson diagonalization with overlap

     total cpu time spent up to now is        9.2 secs

     total energy              =    -117.93119114 Ry
     estimated scf accuracy    <       0.00059358 Ry

     iteration #  4     ecut=    70.00 Ry     beta= 0.40
     Davidson diagonalization with overlap
     ethr =  4.57E-06,  avg # of iterations =  3.3
     ethr =  4.57E-06,  avg # of iterations =  3.3
     ethr =  4.57E-06,  avg # of iterations =  3.3
     ethr =  4.57E-06,  avg # of iterations =  3.3
     ethr =  4.57E-06,  avg # of iterations =  3.3
     ethr =  4.57E-06,  avg # of iterations =  3.3

     total cpu time spent up to now is       11.1 secs

     total energy              =    -117.93123901 Ry
     estimated scf accuracy    <       0.00006405 Ry

     iteration #  5     ecut=    70.00 Ry     beta= 0.40
     Davidson diagonalization with overlap

     total cpu time spent up to now is       11.2 secs

     total energy              =    -117.93123901 Ry
     estimated scf accuracy    <       0.00006405 Ry

     iteration #  5     ecut=    70.00 Ry     beta= 0.40
     Davidson diagonalization with overlap

     total cpu time spent up to now is       11.2 secs

     total energy              =    -117.93123901 Ry
     estimated scf accuracy    <       0.00006405 Ry

     iteration #  5     ecut=    70.00 Ry     beta= 0.40
     Davidson diagonalization with overlap

     total cpu time spent up to now is       11.3 secs

     total energy              =    -117.93123901 Ry
     estimated scf accuracy    <       0.00006405 Ry

     iteration #  5     ecut=    70.00 Ry     beta= 0.40
     Davidson diagonalization with overlap

     total cpu time spent up to now is       11.3 secs

     total energy              =    -117.93123901 Ry
     estimated scf accuracy    <       0.00006405 Ry

     iteration #  5     ecut=    70.00 Ry     beta= 0.40
     Davidson diagonalization with overlap

     total cpu time spent up to now is       11.5 secs

     total energy              =    -117.93123901 Ry
     estimated scf accuracy    <       0.00006405 Ry

     iteration #  5     ecut=    70.00 Ry     beta= 0.40
     Davidson diagonalization with overlap
     ethr =  4.93E-07,  avg # of iterations =  2.2
     ethr =  4.93E-07,  avg # of iterations =  2.2
     ethr =  4.93E-07,  avg # of iterations =  2.2
     ethr =  4.93E-07,  avg # of iterations =  2.2
     ethr =  4.93E-07,  avg # of iterations =  2.2
     ethr =  4.93E-07,  avg # of iterations =  2.2

     total cpu time spent up to now is       13.3 secs

     total energy              =    -117.93125353 Ry
     estimated scf accuracy    <       0.00000867 Ry

     iteration #  6     ecut=    70.00 Ry     beta= 0.40
     Davidson diagonalization with overlap

     total cpu time spent up to now is       13.4 secs

     total energy              =    -117.93125353 Ry
     estimated scf accuracy    <       0.00000867 Ry

     iteration #  6     ecut=    70.00 Ry     beta= 0.40
     Davidson diagonalization with overlap

     total cpu time spent up to now is       13.5 secs

     total energy              =    -117.93125353 Ry
     estimated scf accuracy    <       0.00000867 Ry

     iteration #  6     ecut=    70.00 Ry     beta= 0.40
     Davidson diagonalization with overlap

     total cpu time spent up to now is       13.5 secs

     total energy              =    -117.93125353 Ry
     estimated scf accuracy    <       0.00000867 Ry

     iteration #  6     ecut=    70.00 Ry     beta= 0.40
     Davidson diagonalization with overlap

     total cpu time spent up to now is       13.6 secs

     total energy              =    -117.93125353 Ry
     estimated scf accuracy    <       0.00000867 Ry

     iteration #  6     ecut=    70.00 Ry     beta= 0.40
     Davidson diagonalization with overlap

     total cpu time spent up to now is       13.7 secs

     total energy              =    -117.93125353 Ry
     estimated scf accuracy    <       0.00000867 Ry

     iteration #  6     ecut=    70.00 Ry     beta= 0.40
     Davidson diagonalization with overlap
     ethr =  6.67E-08,  avg # of iterations =  2.0
     ethr =  6.67E-08,  avg # of iterations =  2.0
     ethr =  6.67E-08,  avg # of iterations =  2.0
     ethr =  6.67E-08,  avg # of iterations =  2.0
     ethr =  6.67E-08,  avg # of iterations =  2.0
     ethr =  6.67E-08,  avg # of iterations =  2.0

     total cpu time spent up to now is       15.3 secs

     total energy              =    -117.93125458 Ry
     estimated scf accuracy    <       0.00000002 Ry

     iteration #  7     ecut=    70.00 Ry     beta= 0.40
     Davidson diagonalization with overlap

     total cpu time spent up to now is       15.3 secs

     total energy              =    -117.93125458 Ry
     estimated scf accuracy    <       0.00000002 Ry

     iteration #  7     ecut=    70.00 Ry     beta= 0.40
     Davidson diagonalization with overlap

     total cpu time spent up to now is       15.4 secs

     total energy              =    -117.93125458 Ry
     estimated scf accuracy    <       0.00000002 Ry

     iteration #  7     ecut=    70.00 Ry     beta= 0.40
     Davidson diagonalization with overlap

     total cpu time spent up to now is       15.4 secs

     total energy              =    -117.93125458 Ry
     estimated scf accuracy    <       0.00000002 Ry

     iteration #  7     ecut=    70.00 Ry     beta= 0.40
     Davidson diagonalization with overlap

     total cpu time spent up to now is       15.5 secs

     total energy              =    -117.93125458 Ry
     estimated scf accuracy    <       0.00000002 Ry

     iteration #  7     ecut=    70.00 Ry     beta= 0.40
     Davidson diagonalization with overlap

     total cpu time spent up to now is       15.6 secs

     total energy              =    -117.93125458 Ry
     estimated scf accuracy    <       0.00000002 Ry

     iteration #  7     ecut=    70.00 Ry     beta= 0.40
     Davidson diagonalization with overlap
     ethr =  1.79E-10,  avg # of iterations =  3.0
     ethr =  1.79E-10,  avg # of iterations =  3.0
     ethr =  1.79E-10,  avg # of iterations =  3.0
     ethr =  1.79E-10,  avg # of iterations =  3.0

     total cpu time spent up to now is       17.5 secs

     total energy              =    -117.93125460 Ry
     estimated scf accuracy    <       0.00000002 Ry

     iteration #  8     ecut=    70.00 Ry     beta= 0.40
     Davidson diagonalization with overlap

     total cpu time spent up to now is       17.5 secs

     total energy              =    -117.93125460 Ry
     estimated scf accuracy    <       0.00000002 Ry

     iteration #  8     ecut=    70.00 Ry     beta= 0.40
     Davidson diagonalization with overlap
     ethr =  1.79E-10,  avg # of iterations =  3.0

     total cpu time spent up to now is       17.7 secs

     total energy              =    -117.93125460 Ry
     estimated scf accuracy    <       0.00000002 Ry

     iteration #  8     ecut=    70.00 Ry     beta= 0.40
     Davidson diagonalization with overlap

     total cpu time spent up to now is       17.7 secs

     total energy              =    -117.93125460 Ry
     estimated scf accuracy    <       0.00000002 Ry

     iteration #  8     ecut=    70.00 Ry     beta= 0.40
     Davidson diagonalization with overlap
     ethr =  1.79E-10,  avg # of iterations =  3.0

     total cpu time spent up to now is       18.0 secs

     total energy              =    -117.93125460 Ry
     estimated scf accuracy    <       0.00000002 Ry

     iteration #  8     ecut=    70.00 Ry     beta= 0.40
     Davidson diagonalization with overlap

     total cpu time spent up to now is       18.1 secs

     total energy              =    -117.93125460 Ry
     estimated scf accuracy    <       0.00000002 Ry

     iteration #  8     ecut=    70.00 Ry     beta= 0.40
     Davidson diagonalization with overlap
     ethr =  1.52E-10,  avg # of iterations =  1.0
     ethr =  1.52E-10,  avg # of iterations =  1.0
     ethr =  1.52E-10,  avg # of iterations =  1.0
     ethr =  1.52E-10,  avg # of iterations =  1.0

     total cpu time spent up to now is       19.3 secs

     total energy              =    -117.93125460 Ry
     estimated scf accuracy    <          4.2E-09 Ry

     iteration #  9     ecut=    70.00 Ry     beta= 0.40
     Davidson diagonalization with overlap
     ethr =  1.52E-10,  avg # of iterations =  1.0

     total cpu time spent up to now is       19.4 secs

     total energy              =    -117.93125460 Ry
     estimated scf accuracy    <          4.2E-09 Ry

     iteration #  9     ecut=    70.00 Ry     beta= 0.40
     Davidson diagonalization with overlap
     ethr =  1.52E-10,  avg # of iterations =  1.0

     total cpu time spent up to now is       19.6 secs

     total energy              =    -117.93125460 Ry
     estimated scf accuracy    <          4.2E-09 Ry

     iteration #  9     ecut=    70.00 Ry     beta= 0.40
     Davidson diagonalization with overlap

     total cpu time spent up to now is       19.6 secs

     total energy              =    -117.93125460 Ry
     estimated scf accuracy    <          4.2E-09 Ry

     iteration #  9     ecut=    70.00 Ry     beta= 0.40
     Davidson diagonalization with overlap

     total cpu time spent up to now is       19.8 secs

     total energy              =    -117.93125460 Ry
     estimated scf accuracy    <          4.2E-09 Ry

     iteration #  9     ecut=    70.00 Ry     beta= 0.40
     Davidson diagonalization with overlap

     total cpu time spent up to now is       20.0 secs

     total energy              =    -117.93125460 Ry
     estimated scf accuracy    <          4.2E-09 Ry

     iteration #  9     ecut=    70.00 Ry     beta= 0.40
     Davidson diagonalization with overlap
     ethr =  3.20E-11,  avg # of iterations =  2.0
     ethr =  3.20E-11,  avg # of iterations =  2.0
     ethr =  3.20E-11,  avg # of iterations =  2.0
     ethr =  3.20E-11,  avg # of iterations =  2.0
     ethr =  3.20E-11,  avg # of iterations =  2.0

     total cpu time spent up to now is       21.5 secs

     End of self-consistent calculation

     Number of k-points >= 100: set verbosity='high' to print the bands.

     the Fermi energy is    18.9337 ev

!    total energy              =    -117.93125460 Ry
     estimated scf accuracy    <          9.6E-11 Ry
     smearing contrib. (-TS)   =      -0.00003709 Ry
     internal energy E=F+TS    =    -117.93121751 Ry

     The total energy is F=E-TS. E is the sum of the following terms:
     one-electron contribution =     -13.82405662 Ry
     hartree contribution      =      14.39512630 Ry
     xc contribution           =     -18.49733548 Ry
     ewald contribution        =    -100.00495170 Ry

     convergence has been achieved in   9 iterations

     Writing all to output data dir ./tmp/Nb_eos_6.15.save/

     init_run     :      1.04s CPU      1.12s WALL (       1 calls)
     electrons    :     19.36s CPU     20.35s WALL (       1 calls)

     Called by init_run:
     wfcinit      :      0.82s CPU      0.89s WALL (       1 calls)
     potinit      :      0.02s CPU      0.03s WALL (       1 calls)
     hinit0       :      0.15s CPU      0.16s WALL (       1 calls)

     Called by electrons:
     c_bands      :     15.43s CPU     16.13s WALL (      10 calls)
     sum_band     :      3.55s CPU      3.76s WALL (      10 calls)
     v_of_rho     :      0.20s CPU      0.22s WALL (      10 calls)
     newd         :      0.20s CPU      0.25s WALL (      10 calls)
     mix_rho      :      0.02s CPU      0.02s WALL (      10 calls)

     Called by c_bands:
     init_us_2    :      0.40s CPU      0.41s WALL (    3045 calls)
     init_us_2:cp :      0.39s CPU      0.41s WALL (    3045 calls)
     cegterg      :     14.84s CPU     15.52s WALL (    1450 calls)

     Called by *egterg:
     cdiaghg      :      0.30s CPU      0.31s WALL (    4605 calls)
     h_psi        :     13.68s CPU     14.27s WALL (    4895 calls)
     s_psi        :      0.25s CPU      0.26s WALL (    4895 calls)
     g_psi        :      0.04s CPU      0.04s WALL (    3300 calls)

     Called by h_psi:
     h_psi:calbec :      0.29s CPU      0.30s WALL (    4895 calls)
     vloc_psi     :     13.11s CPU     13.66s WALL (    4895 calls)
     add_vuspsi   :      0.26s CPU      0.26s WALL (    4895 calls)

     General routines
     calbec       :      0.40s CPU      0.41s WALL (    6345 calls)
     fft          :      0.10s CPU      0.10s WALL (     129 calls)
     ffts         :      0.01s CPU      0.01s WALL (      20 calls)
     fftw         :     13.38s CPU     13.95s WALL (   93864 calls)
     interpolate  :      0.01s CPU      0.01s WALL (      10 calls)


     PWSCF        :     20.47s CPU     21.65s WALL


   This run was terminated on:  23:15:13   6Mar2026            

=------------------------------------------------------------------------------=
   JOB DONE.
=------------------------------------------------------------------------------=
Note: The following floating-point exceptions are signalling: IEEE_INVALID_FLAG IEEE_DIVIDE_BY_ZERO IEEE_UNDERFLOW_FLAG
     ethr =  3.20E-11,  avg # of iterations =  2.0

     total cpu time spent up to now is       21.8 secs

     End of self-consistent calculation

     Number of k-points >= 100: set verbosity='high' to print the bands.

     the Fermi energy is    18.9337 ev

!    total energy              =    -117.93125460 Ry
     estimated scf accuracy    <          9.6E-11 Ry
     smearing contrib. (-TS)   =      -0.00003709 Ry
     internal energy E=F+TS    =    -117.93121751 Ry

     The total energy is F=E-TS. E is the sum of the following terms:
     one-electron contribution =     -13.82405662 Ry
     hartree contribution      =      14.39512630 Ry
     xc contribution           =     -18.49733548 Ry
     ewald contribution        =    -100.00495170 Ry

     convergence has been achieved in   9 iterations

     Writing all to output data dir ./tmp/Nb_eos_6.15.save/

     total cpu time spent up to now is       21.8 secs

     End of self-consistent calculation

     Number of k-points >= 100: set verbosity='high' to print the bands.

     the Fermi energy is    18.9337 ev

!    total energy              =    -117.93125460 Ry
     estimated scf accuracy    <          9.6E-11 Ry
     smearing contrib. (-TS)   =      -0.00003709 Ry
     internal energy E=F+TS    =    -117.93121751 Ry

     The total energy is F=E-TS. E is the sum of the following terms:
     one-electron contribution =     -13.82405662 Ry
     hartree contribution      =      14.39512630 Ry
     xc contribution           =     -18.49733548 Ry
     ewald contribution        =    -100.00495170 Ry

     convergence has been achieved in   9 iterations

     Writing all to output data dir ./tmp/Nb_eos_6.15.save/

     init_run     :      1.02s CPU      1.08s WALL (       1 calls)
     electrons    :     19.59s CPU     20.62s WALL (       1 calls)

     Called by init_run:
     wfcinit      :      0.80s CPU      0.83s WALL (       1 calls)
     potinit      :      0.03s CPU      0.03s WALL (       1 calls)
     hinit0       :      0.16s CPU      0.17s WALL (       1 calls)

     Called by electrons:
     c_bands      :     15.68s CPU     16.45s WALL (      10 calls)
     sum_band     :      3.53s CPU      3.73s WALL (      10 calls)
     v_of_rho     :      0.19s CPU      0.21s WALL (      10 calls)
     newd         :      0.20s CPU      0.24s WALL (      10 calls)
     mix_rho      :      0.02s CPU      0.02s WALL (      10 calls)

     Called by c_bands:
     init_us_2    :      0.40s CPU      0.42s WALL (    3045 calls)
     init_us_2:cp :      0.40s CPU      0.42s WALL (    3045 calls)
     cegterg      :     15.07s CPU     15.81s WALL (    1450 calls)

     Called by *egterg:
     cdiaghg      :      0.30s CPU      0.32s WALL (    4605 calls)
     h_psi        :     13.88s CPU     14.49s WALL (    4895 calls)
     s_psi        :      0.26s CPU      0.27s WALL (    4895 calls)
     g_psi        :      0.04s CPU      0.04s WALL (    3300 calls)

     Called by h_psi:
     h_psi:calbec :      0.29s CPU      0.30s WALL (    4895 calls)
     vloc_psi     :     13.30s CPU     13.86s WALL (    4895 calls)
     add_vuspsi   :      0.26s CPU      0.28s WALL (    4895 calls)

     General routines
     calbec       :      0.40s CPU      0.42s WALL (    6345 calls)
     fft          :      0.10s CPU      0.10s WALL (     129 calls)
     ffts         :      0.01s CPU      0.01s WALL (      20 calls)
     fftw         :     13.55s CPU     14.10s WALL (   93864 calls)
     interpolate  :      0.01s CPU      0.01s WALL (      10 calls)


     PWSCF        :     20.68s CPU     21.82s WALL


   This run was terminated on:  23:15:13   6Mar2026            

=------------------------------------------------------------------------------=
   JOB DONE.
=------------------------------------------------------------------------------=
Note: The following floating-point exceptions are signalling: IEEE_INVALID_FLAG IEEE_DIVIDE_BY_ZERO IEEE_UNDERFLOW_FLAG

     init_run     :      1.05s CPU      1.13s WALL (       1 calls)
     electrons    :     19.57s CPU     20.60s WALL (       1 calls)

     Called by init_run:
     wfcinit      :      0.83s CPU      0.90s WALL (       1 calls)
     potinit      :      0.02s CPU      0.02s WALL (       1 calls)
     hinit0       :      0.16s CPU      0.17s WALL (       1 calls)

     Called by electrons:
     c_bands      :     15.71s CPU     16.48s WALL (      10 calls)
     sum_band     :      3.48s CPU      3.68s WALL (      10 calls)
     v_of_rho     :      0.18s CPU      0.21s WALL (      10 calls)
     newd         :      0.20s CPU      0.25s WALL (      10 calls)
     mix_rho      :      0.02s CPU      0.02s WALL (      10 calls)

     Called by c_bands:
     init_us_2    :      0.40s CPU      0.42s WALL (    3045 calls)
     init_us_2:cp :      0.40s CPU      0.41s WALL (    3045 calls)
     cegterg      :     15.11s CPU     15.84s WALL (    1450 calls)

     Called by *egterg:
     cdiaghg      :      0.30s CPU      0.32s WALL (    4605 calls)
     h_psi        :     13.93s CPU     14.58s WALL (    4895 calls)
     s_psi        :      0.26s CPU      0.27s WALL (    4895 calls)
     g_psi        :      0.04s CPU      0.04s WALL (    3300 calls)

     Called by h_psi:
     h_psi:calbec :      0.30s CPU      0.31s WALL (    4895 calls)
     vloc_psi     :     13.35s CPU     13.96s WALL (    4895 calls)
     add_vuspsi   :      0.26s CPU      0.27s WALL (    4895 calls)

     General routines
     calbec       :      0.40s CPU      0.42s WALL (    6345 calls)
     fft          :      0.10s CPU      0.10s WALL (     129 calls)
     ffts         :      0.01s CPU      0.01s WALL (      20 calls)
     fftw         :     13.52s CPU     14.12s WALL (   93864 calls)
     interpolate  :      0.01s CPU      0.01s WALL (      10 calls)


     PWSCF        :     20.68s CPU     21.84s WALL


   This run was terminated on:  23:15:13   6Mar2026            

=------------------------------------------------------------------------------=
   JOB DONE.
=------------------------------------------------------------------------------=
Note: The following floating-point exceptions are signalling: IEEE_INVALID_FLAG IEEE_DIVIDE_BY_ZERO IEEE_UNDERFLOW_FLAG

     total cpu time spent up to now is       21.9 secs

     End of self-consistent calculation

     Number of k-points >= 100: set verbosity='high' to print the bands.

     the Fermi energy is    18.9337 ev

!    total energy              =    -117.93125460 Ry
     estimated scf accuracy    <          9.6E-11 Ry
     smearing contrib. (-TS)   =      -0.00003709 Ry
     internal energy E=F+TS    =    -117.93121751 Ry

     The total energy is F=E-TS. E is the sum of the following terms:
     one-electron contribution =     -13.82405662 Ry
     hartree contribution      =      14.39512630 Ry
     xc contribution           =     -18.49733548 Ry
     ewald contribution        =    -100.00495170 Ry

     convergence has been achieved in   9 iterations

     Writing all to output data dir ./tmp/Nb_eos_6.15.save/

     init_run     :      1.04s CPU      1.11s WALL (       1 calls)
     electrons    :     19.61s CPU     20.69s WALL (       1 calls)

     Called by init_run:
     wfcinit      :      0.82s CPU      0.87s WALL (       1 calls)
     potinit      :      0.02s CPU      0.02s WALL (       1 calls)
     hinit0       :      0.16s CPU      0.17s WALL (       1 calls)

     Called by electrons:
     c_bands      :     15.71s CPU     16.49s WALL (      10 calls)
     sum_band     :      3.53s CPU      3.75s WALL (      10 calls)
     v_of_rho     :      0.18s CPU      0.20s WALL (      10 calls)
     newd         :      0.19s CPU      0.26s WALL (      10 calls)
     mix_rho      :      0.02s CPU      0.02s WALL (      10 calls)

     Called by c_bands:
     init_us_2    :      0.40s CPU      0.42s WALL (    3045 calls)
     init_us_2:cp :      0.40s CPU      0.42s WALL (    3045 calls)
     cegterg      :     15.10s CPU     15.84s WALL (    1450 calls)

     Called by *egterg:
     cdiaghg      :      0.30s CPU      0.32s WALL (    4605 calls)
     h_psi        :     13.92s CPU     14.54s WALL (    4895 calls)
     s_psi        :      0.25s CPU      0.27s WALL (    4895 calls)
     g_psi        :      0.04s CPU      0.04s WALL (    3300 calls)

     Called by h_psi:
     h_psi:calbec :      0.30s CPU      0.31s WALL (    4895 calls)
     vloc_psi     :     13.33s CPU     13.92s WALL (    4895 calls)
     add_vuspsi   :      0.26s CPU      0.27s WALL (    4895 calls)

     General routines
     calbec       :      0.41s CPU      0.42s WALL (    6345 calls)
     fft          :      0.09s CPU      0.10s WALL (     129 calls)
     ffts         :      0.01s CPU      0.01s WALL (      20 calls)
     fftw         :     13.57s CPU     14.17s WALL (   93864 calls)
     interpolate  :      0.01s CPU      0.01s WALL (      10 calls)


     PWSCF        :     20.72s CPU     21.90s WALL


   This run was terminated on:  23:15:13   6Mar2026            

=------------------------------------------------------------------------------=
   JOB DONE.
=------------------------------------------------------------------------------=
Note: The following floating-point exceptions are signalling: IEEE_INVALID_FLAG IEEE_DIVIDE_BY_ZERO IEEE_UNDERFLOW_FLAG

     total cpu time spent up to now is       21.9 secs

     End of self-consistent calculation

     Number of k-points >= 100: set verbosity='high' to print the bands.

     the Fermi energy is    18.9337 ev

!    total energy              =    -117.93125460 Ry
     estimated scf accuracy    <          9.6E-11 Ry
     smearing contrib. (-TS)   =      -0.00003709 Ry
     internal energy E=F+TS    =    -117.93121751 Ry

     The total energy is F=E-TS. E is the sum of the following terms:
     one-electron contribution =     -13.82405662 Ry
     hartree contribution      =      14.39512630 Ry
     xc contribution           =     -18.49733548 Ry
     ewald contribution        =    -100.00495170 Ry

     convergence has been achieved in   9 iterations

     Writing all to output data dir ./tmp/Nb_eos_6.15.save/

     init_run     :      1.04s CPU      1.13s WALL (       1 calls)
     electrons    :     19.81s CPU     20.75s WALL (       1 calls)

     Called by init_run:
     wfcinit      :      0.82s CPU      0.89s WALL (       1 calls)
     potinit      :      0.02s CPU      0.03s WALL (       1 calls)
     hinit0       :      0.16s CPU      0.18s WALL (       1 calls)

     Called by electrons:
     c_bands      :     15.87s CPU     16.53s WALL (      10 calls)
     sum_band     :      3.55s CPU      3.75s WALL (      10 calls)
     v_of_rho     :      0.19s CPU      0.21s WALL (      10 calls)
     newd         :      0.20s CPU      0.26s WALL (      10 calls)
     mix_rho      :      0.02s CPU      0.02s WALL (      10 calls)

     Called by c_bands:
     init_us_2    :      0.41s CPU      0.42s WALL (    3045 calls)
     init_us_2:cp :      0.41s CPU      0.42s WALL (    3045 calls)
     cegterg      :     15.25s CPU     15.88s WALL (    1450 calls)

     Called by *egterg:
     cdiaghg      :      0.31s CPU      0.32s WALL (    4605 calls)
     h_psi        :     14.05s CPU     14.59s WALL (    4895 calls)
     s_psi        :      0.26s CPU      0.27s WALL (    4895 calls)
     g_psi        :      0.04s CPU      0.04s WALL (    3300 calls)

     Called by h_psi:
     h_psi:calbec :      0.30s CPU      0.31s WALL (    4895 calls)
     vloc_psi     :     13.46s CPU     13.97s WALL (    4895 calls)
     add_vuspsi   :      0.26s CPU      0.27s WALL (    4895 calls)

     General routines
     calbec       :      0.41s CPU      0.43s WALL (    6345 calls)
     fft          :      0.10s CPU      0.11s WALL (     129 calls)
     ffts         :      0.01s CPU      0.01s WALL (      20 calls)
     fftw         :     13.67s CPU     14.18s WALL (   93864 calls)
     interpolate  :      0.02s CPU      0.02s WALL (      10 calls)


     PWSCF        :     20.91s CPU     21.98s WALL


   This run was terminated on:  23:15:13   6Mar2026            

=------------------------------------------------------------------------------=
   JOB DONE.
=------------------------------------------------------------------------------=
Note: The following floating-point exceptions are signalling: IEEE_INVALID_FLAG IEEE_DIVIDE_BY_ZERO IEEE_UNDERFLOW_FLAG

     total cpu time spent up to now is       22.1 secs

     End of self-consistent calculation

     Number of k-points >= 100: set verbosity='high' to print the bands.

     the Fermi energy is    18.9337 ev

!    total energy              =    -117.93125460 Ry
     estimated scf accuracy    <          9.6E-11 Ry
     smearing contrib. (-TS)   =      -0.00003709 Ry
     internal energy E=F+TS    =    -117.93121751 Ry

     The total energy is F=E-TS. E is the sum of the following terms:
     one-electron contribution =     -13.82405662 Ry
     hartree contribution      =      14.39512630 Ry
     xc contribution           =     -18.49733548 Ry
     ewald contribution        =    -100.00495170 Ry

     convergence has been achieved in   9 iterations

     Writing all to output data dir ./tmp/Nb_eos_6.15.save/

     init_run     :      1.03s CPU      1.09s WALL (       1 calls)
     electrons    :     19.84s CPU     20.91s WALL (       1 calls)

     Called by init_run:
     wfcinit      :      0.81s CPU      0.86s WALL (       1 calls)
     potinit      :      0.02s CPU      0.02s WALL (       1 calls)
     hinit0       :      0.16s CPU      0.16s WALL (       1 calls)

     Called by electrons:
     c_bands      :     15.96s CPU     16.77s WALL (      10 calls)
     sum_band     :      3.50s CPU      3.70s WALL (      10 calls)
     v_of_rho     :      0.18s CPU      0.20s WALL (      10 calls)
     newd         :      0.20s CPU      0.25s WALL (      10 calls)
     mix_rho      :      0.02s CPU      0.02s WALL (      10 calls)

     Called by c_bands:
     init_us_2    :      0.40s CPU      0.42s WALL (    3045 calls)
     init_us_2:cp :      0.40s CPU      0.42s WALL (    3045 calls)
     cegterg      :     15.35s CPU     16.12s WALL (    1450 calls)

     Called by *egterg:
     cdiaghg      :      0.31s CPU      0.33s WALL (    4605 calls)
     h_psi        :     14.13s CPU     14.77s WALL (    4895 calls)
     s_psi        :      0.26s CPU      0.27s WALL (    4895 calls)
     g_psi        :      0.04s CPU      0.04s WALL (    3300 calls)

     Called by h_psi:
     h_psi:calbec :      0.30s CPU      0.31s WALL (    4895 calls)
     vloc_psi     :     13.53s CPU     14.14s WALL (    4895 calls)
     add_vuspsi   :      0.26s CPU      0.27s WALL (    4895 calls)

     General routines
     calbec       :      0.41s CPU      0.43s WALL (    6345 calls)
     fft          :      0.10s CPU      0.10s WALL (     129 calls)
     ffts         :      0.01s CPU      0.01s WALL (      20 calls)
     fftw         :     13.69s CPU     14.27s WALL (   93864 calls)
     interpolate  :      0.01s CPU      0.01s WALL (      10 calls)


     PWSCF        :     20.93s CPU     22.09s WALL


   This run was terminated on:  23:15:13   6Mar2026            

=------------------------------------------------------------------------------=
   JOB DONE.
=------------------------------------------------------------------------------=
Note: The following floating-point exceptions are signalling: IEEE_INVALID_FLAG IEEE_DIVIDE_BY_ZERO IEEE_UNDERFLOW_FLAG
