
     Program PWSCF v.7.2 starts on  6Mar2026 at 23:15:13 

     This program is part of the open-source Quantum ESPRESSO suite
     for quantum simulation of materials; please cite
         "P. Giannozzi et al., J. Phys.:Condens. Matter 21 395502 (2009);
         "P. Giannozzi et al., J. Phys.:Condens. Matter 29 465901 (2017);
         "P. Giannozzi et al., J. Chem. Phys. 152 154105 (2020);
          URL http://www.quantum-espresso.org", 
     in publications or presentations arising from this work. More details at
     http://www.quantum-espresso.org/quote

     Serial multi-threaded version, running on    1 processor cores
     0 MiB available memory on the printing compute node when the environment starts

     Reading input from results/eos/Nb_eos_6.20.in

     Program PWSCF v.7.2 starts on  6Mar2026 at 23:15:13 

     This program is part of the open-source Quantum ESPRESSO suite
     for quantum simulation of materials; please cite
         "P. Giannozzi et al., J. Phys.:Condens. Matter 21 395502 (2009);
         "P. Giannozzi et al., J. Phys.:Condens. Matter 29 465901 (2017);
         "P. Giannozzi et al., J. Chem. Phys. 152 154105 (2020);
          URL http://www.quantum-espresso.org", 
     in publications or presentations arising from this work. More details at
     http://www.quantum-espresso.org/quote

     Serial multi-threaded version, running on    1 processor cores
     0 MiB available memory on the printing compute node when the environment starts

     Reading input from results/eos/Nb_eos_6.20.in

     Program PWSCF v.7.2 starts on  6Mar2026 at 23:15:13 

     This program is part of the open-source Quantum ESPRESSO suite
     for quantum simulation of materials; please cite
         "P. Giannozzi et al., J. Phys.:Condens. Matter 21 395502 (2009);
         "P. Giannozzi et al., J. Phys.:Condens. Matter 29 465901 (2017);
         "P. Giannozzi et al., J. Chem. Phys. 152 154105 (2020);
          URL http://www.quantum-espresso.org", 
     in publications or presentations arising from this work. More details at
     http://www.quantum-espresso.org/quote

     Serial multi-threaded version, running on    1 processor cores
     0 MiB available memory on the printing compute node when the environment starts

     Reading input from results/eos/Nb_eos_6.20.in

     Program PWSCF v.7.2 starts on  6Mar2026 at 23:15:13 

     This program is part of the open-source Quantum ESPRESSO suite
     for quantum simulation of materials; please cite
         "P. Giannozzi et al., J. Phys.:Condens. Matter 21 395502 (2009);
         "P. Giannozzi et al., J. Phys.:Condens. Matter 29 465901 (2017);
         "P. Giannozzi et al., J. Chem. Phys. 152 154105 (2020);
          URL http://www.quantum-espresso.org", 
     in publications or presentations arising from this work. More details at
     http://www.quantum-espresso.org/quote

     Serial multi-threaded version, running on    1 processor cores
     0 MiB available memory on the printing compute node when the environment starts

     Reading input from results/eos/Nb_eos_6.20.in

     Program PWSCF v.7.2 starts on  6Mar2026 at 23:15:13 

     Current dimensions of program PWSCF are:
     Max number of different atomic species (ntypx) = 10
     Max number of k-points (npk) =  40000
     Max angular momentum in pseudopotentials (lmaxx) =  4

     This program is part of the open-source Quantum ESPRESSO suite
     for quantum simulation of materials; please cite
         "P. Giannozzi et al., J. Phys.:Condens. Matter 21 395502 (2009);
         "P. Giannozzi et al., J. Phys.:Condens. Matter 29 465901 (2017);
         "P. Giannozzi et al., J. Chem. Phys. 152 154105 (2020);
          URL http://www.quantum-espresso.org", 
     in publications or presentations arising from this work. More details at
     http://www.quantum-espresso.org/quote

     Serial multi-threaded version, running on    1 processor cores
     0 MiB available memory on the printing compute node when the environment starts


     Current dimensions of program PWSCF are:
     Max number of different atomic species (ntypx) = 10
     Max number of k-points (npk) =  40000
     Max angular momentum in pseudopotentials (lmaxx) =  4

     Program PWSCF v.7.2 starts on  6Mar2026 at 23:15:13 

     This program is part of the open-source Quantum ESPRESSO suite
     for quantum simulation of materials; please cite
         "P. Giannozzi et al., J. Phys.:Condens. Matter 21 395502 (2009);
         "P. Giannozzi et al., J. Phys.:Condens. Matter 29 465901 (2017);
         "P. Giannozzi et al., J. Chem. Phys. 152 154105 (2020);
          URL http://www.quantum-espresso.org", 
     in publications or presentations arising from this work. More details at
     http://www.quantum-espresso.org/quote

     Serial multi-threaded version, running on    1 processor cores
     0 MiB available memory on the printing compute node when the environment starts

     Reading input from results/eos/Nb_eos_6.20.in

     Current dimensions of program PWSCF are:
     Max number of different atomic species (ntypx) = 10
     Max number of k-points (npk) =  40000
     Max angular momentum in pseudopotentials (lmaxx) =  4
     Reading input from results/eos/Nb_eos_6.20.in

     Current dimensions of program PWSCF are:
     Max number of different atomic species (ntypx) = 10
     Max number of k-points (npk) =  40000
     Max angular momentum in pseudopotentials (lmaxx) =  4

     Current dimensions of program PWSCF are:
     Max number of different atomic species (ntypx) = 10
     Max number of k-points (npk) =  40000
     Max angular momentum in pseudopotentials (lmaxx) =  4

     Current dimensions of program PWSCF are:
     Max number of different atomic species (ntypx) = 10
     Max number of k-points (npk) =  40000
     Max angular momentum in pseudopotentials (lmaxx) =  4


     G-vector sticks info
     --------------------
     sticks:   dense  smooth     PW     G-vecs:    dense   smooth      PW
     Sum        1215     611    181                26563     9453    1601

     Using Slab Decomposition



     bravais-lattice index     =            3
     lattice parameter (alat)  =       6.2000  a.u.
     unit-cell volume          =     119.1640 (a.u.)^3
     number of atoms/cell      =            1
     number of atomic types    =            1
     number of electrons       =        13.00
     number of Kohn-Sham states=           11
     kinetic-energy cutoff     =      70.0000  Ry
     charge density cutoff     =     560.0000  Ry
     scf convergence threshold =      1.0E-10
     mixing beta               =       0.4000
     number of iterations used =            8  plain     mixing
     Exchange-correlation= SLA  PW   PBE  PBE
                           (   1   4   3   4   0   0   0)

     celldm(1)=   6.200000  celldm(2)=   0.000000  celldm(3)=   0.000000
     celldm(4)=   0.000000  celldm(5)=   0.000000  celldm(6)=   0.000000

     crystal axes: (cart. coord. in units of alat)
               a(1) = (   0.500000   0.500000   0.500000 )  
               a(2) = (  -0.500000   0.500000   0.500000 )  
               a(3) = (  -0.500000  -0.500000   0.500000 )  

     reciprocal axes: (cart. coord. in units 2 pi/alat)
               b(1) = (  1.000000  0.000000  1.000000 )  
               b(2) = ( -1.000000  1.000000  0.000000 )  
               b(3) = (  0.000000 -1.000000  1.000000 )  


     PseudoPot. # 1 for Nb read from file:
     ./pseudo/nb_pbe_v1.uspp.F.UPF
     MD5 check sum: 573aab8a2fa660278ed4a62cd769473f
     Pseudo is Ultrasoft + core correction, Zval = 13.0
     Generated by new atomic code, or converted to UPF format
     Using radial grid of  887 points,  6 beta functions with: 
                l(1) =   0
                l(2) =   0
                l(3) =   1
                l(4) =   1
                l(5) =   2
                l(6) =   2
     Q(r) pseudized with  6 coefficients,  rinner =    1.000   1.000   1.000
                                                       1.000   1.000

     atomic species   valence    mass     pseudopotential
        Nb            13.00    92.90600     Nb( 1.00)

     48 Sym. Ops., with inversion, found



   Cartesian axes

     site n.     atom                  positions (alat units)
         1           Nb  tau(   1) = (   0.0000000   0.0000000   0.0000000  )

     number of k points=   145  Marzari-Vanderbilt smearing, width (Ry)=  0.0300

     Number of k-points >= 100: set verbosity='high' to print them.

     Dense  grid:    26563 G-vectors     FFT dimensions: (  45,  45,  45)

     Smooth grid:     9453 G-vectors     FFT dimensions: (  30,  30,  30)

     Estimated max dynamical RAM per process >     124.08 MB


     G-vector sticks info
     --------------------
     sticks:   dense  smooth     PW     G-vecs:    dense   smooth      PW
     Sum        1215     611    181                26563     9453    1601

     Using Slab Decomposition



     bravais-lattice index     =            3
     lattice parameter (alat)  =       6.2000  a.u.
     unit-cell volume          =     119.1640 (a.u.)^3
     number of atoms/cell      =            1
     number of atomic types    =            1
     number of electrons       =        13.00
     number of Kohn-Sham states=           11
     kinetic-energy cutoff     =      70.0000  Ry
     charge density cutoff     =     560.0000  Ry
     scf convergence threshold =      1.0E-10
     mixing beta               =       0.4000
     number of iterations used =            8  plain     mixing
     Exchange-correlation= SLA  PW   PBE  PBE
                           (   1   4   3   4   0   0   0)

     celldm(1)=   6.200000  celldm(2)=   0.000000  celldm(3)=   0.000000
     celldm(4)=   0.000000  celldm(5)=   0.000000  celldm(6)=   0.000000

     crystal axes: (cart. coord. in units of alat)
               a(1) = (   0.500000   0.500000   0.500000 )  
               a(2) = (  -0.500000   0.500000   0.500000 )  
               a(3) = (  -0.500000  -0.500000   0.500000 )  

     reciprocal axes: (cart. coord. in units 2 pi/alat)
               b(1) = (  1.000000  0.000000  1.000000 )  
               b(2) = ( -1.000000  1.000000  0.000000 )  
               b(3) = (  0.000000 -1.000000  1.000000 )  


     PseudoPot. # 1 for Nb read from file:
     ./pseudo/nb_pbe_v1.uspp.F.UPF
     MD5 check sum: 573aab8a2fa660278ed4a62cd769473f
     Pseudo is Ultrasoft + core correction, Zval = 13.0
     Generated by new atomic code, or converted to UPF format
     Using radial grid of  887 points,  6 beta functions with: 

                l(1) =   0
                l(2) =   0
                l(3) =   1
                l(4) =   1
                l(5) =   2
                l(6) =   2
     Q(r) pseudized with  6 coefficients,  rinner =    1.000   1.000   1.000
                                                       1.000   1.000

     atomic species   valence    mass     pseudopotential
        Nb            13.00    92.90600     Nb( 1.00)

     48 Sym. Ops., with inversion, found



   Cartesian axes

     site n.     atom                  positions (alat units)
         1           Nb  tau(   1) = (   0.0000000   0.0000000   0.0000000  )

     number of k points=   145  Marzari-Vanderbilt smearing, width (Ry)=  0.0300

     Number of k-points >= 100: set verbosity='high' to print them.

     Dense  grid:    26563 G-vectors     FFT dimensions: (  45,  45,  45)

     Smooth grid:     9453 G-vectors     FFT dimensions: (  30,  30,  30)

     Estimated max dynamical RAM per process >     124.08 MB

     G-vector sticks info
     --------------------
     sticks:   dense  smooth     PW     G-vecs:    dense   smooth      PW
     Sum        1215     611    181                26563     9453    1601

     Using Slab Decomposition



     bravais-lattice index     =            3
     lattice parameter (alat)  =       6.2000  a.u.
     unit-cell volume          =     119.1640 (a.u.)^3
     number of atoms/cell      =            1
     number of atomic types    =            1
     number of electrons       =        13.00
     number of Kohn-Sham states=           11
     kinetic-energy cutoff     =      70.0000  Ry
     charge density cutoff     =     560.0000  Ry
     scf convergence threshold =      1.0E-10
     mixing beta               =       0.4000
     number of iterations used =            8  plain     mixing
     Exchange-correlation= SLA  PW   PBE  PBE
                           (   1   4   3   4   0   0   0)

     celldm(1)=   6.200000  celldm(2)=   0.000000  celldm(3)=   0.000000
     celldm(4)=   0.000000  celldm(5)=   0.000000  celldm(6)=   0.000000

     crystal axes: (cart. coord. in units of alat)
               a(1) = (   0.500000   0.500000   0.500000 )  
               a(2) = (  -0.500000   0.500000   0.500000 )  
               a(3) = (  -0.500000  -0.500000   0.500000 )  

     reciprocal axes: (cart. coord. in units 2 pi/alat)
               b(1) = (  1.000000  0.000000  1.000000 )  
               b(2) = ( -1.000000  1.000000  0.000000 )  
               b(3) = (  0.000000 -1.000000  1.000000 )  


     PseudoPot. # 1 for Nb read from file:
     ./pseudo/nb_pbe_v1.uspp.F.UPF
     MD5 check sum: 573aab8a2fa660278ed4a62cd769473f
     Pseudo is Ultrasoft + core correction, Zval = 13.0
     Generated by new atomic code, or converted to UPF format
     Using radial grid of  887 points,  6 beta functions with: 
                l(1) =   0
                l(2) =   0
                l(3) =   1
                l(4) =   1
                l(5) =   2
                l(6) =   2
     Q(r) pseudized with  6 coefficients,  rinner =    1.000   1.000   1.000
                                                       1.000   1.000

     atomic species   valence    mass     pseudopotential
        Nb            13.00    92.90600     Nb( 1.00)

     48 Sym. Ops., with inversion, found



   Cartesian axes

     site n.     atom                  positions (alat units)
         1           Nb  tau(   1) = (   0.0000000   0.0000000   0.0000000  )

     number of k points=   145  Marzari-Vanderbilt smearing, width (Ry)=  0.0300

     Number of k-points >= 100: set verbosity='high' to print them.

     Dense  grid:    26563 G-vectors     FFT dimensions: (  45,  45,  45)

     Smooth grid:     9453 G-vectors     FFT dimensions: (  30,  30,  30)

     Estimated max dynamical RAM per process >     124.08 MB


     G-vector sticks info
     --------------------
     sticks:   dense  smooth     PW     G-vecs:    dense   smooth      PW
     Sum        1215     611    181                26563     9453    1601

     Using Slab Decomposition



     bravais-lattice index     =            3
     lattice parameter (alat)  =       6.2000  a.u.
     unit-cell volume          =     119.1640 (a.u.)^3
     number of atoms/cell      =            1
     number of atomic types    =            1
     number of electrons       =        13.00
     number of Kohn-Sham states=           11
     kinetic-energy cutoff     =      70.0000  Ry
     charge density cutoff     =     560.0000  Ry
     scf convergence threshold =      1.0E-10
     mixing beta               =       0.4000
     number of iterations used =            8  plain     mixing
     Exchange-correlation= SLA  PW   PBE  PBE
                           (   1   4   3   4   0   0   0)

     celldm(1)=   6.200000  celldm(2)=   0.000000  celldm(3)=   0.000000
     celldm(4)=   0.000000  celldm(5)=   0.000000  celldm(6)=   0.000000

     crystal axes: (cart. coord. in units of alat)
               a(1) = (   0.500000   0.500000   0.500000 )  
               a(2) = (  -0.500000   0.500000   0.500000 )  
               a(3) = (  -0.500000  -0.500000   0.500000 )  

     reciprocal axes: (cart. coord. in units 2 pi/alat)
               b(1) = (  1.000000  0.000000  1.000000 )  
               b(2) = ( -1.000000  1.000000  0.000000 )  
               b(3) = (  0.000000 -1.000000  1.000000 )  


     PseudoPot. # 1 for Nb read from file:
     ./pseudo/nb_pbe_v1.uspp.F.UPF
     MD5 check sum: 573aab8a2fa660278ed4a62cd769473f
     Pseudo is Ultrasoft + core correction, Zval = 13.0
     Generated by new atomic code, or converted to UPF format
     Using radial grid of  887 points,  6 beta functions with: 
                l(1) =   0
                l(2) =   0
                l(3) =   1
                l(4) =   1
                l(5) =   2
                l(6) =   2
     Q(r) pseudized with  6 coefficients,  rinner =    1.000   1.000   1.000
                                                       1.000   1.000

     atomic species   valence    mass     pseudopotential
        Nb            13.00    92.90600     Nb( 1.00)

     48 Sym. Ops., with inversion, found



   Cartesian axes

     site n.     atom                  positions (alat units)
         1           Nb  tau(   1) = (   0.0000000   0.0000000   0.0000000  )

     number of k points=   145  Marzari-Vanderbilt smearing, width (Ry)=  0.0300

     Number of k-points >= 100: set verbosity='high' to print them.

     Dense  grid:    26563 G-vectors     FFT dimensions: (  45,  45,  45)

     Smooth grid:     9453 G-vectors     FFT dimensions: (  30,  30,  30)

     Estimated max dynamical RAM per process >     124.08 MB



     G-vector sticks info
     --------------------
     sticks:   dense  smooth     PW     G-vecs:    dense   smooth      PW
     Sum        1215     611    181                26563     9453    1601

     Using Slab Decomposition



     bravais-lattice index     =            3
     lattice parameter (alat)  =       6.2000  a.u.
     unit-cell volume          =     119.1640 (a.u.)^3
     number of atoms/cell      =            1
     number of atomic types    =            1
     number of electrons       =        13.00
     number of Kohn-Sham states=           11
     kinetic-energy cutoff     =      70.0000  Ry
     charge density cutoff     =     560.0000  Ry
     scf convergence threshold =      1.0E-10
     mixing beta               =       0.4000
     number of iterations used =            8  plain     mixing
     Exchange-correlation= SLA  PW   PBE  PBE
                           (   1   4   3   4   0   0   0)

     celldm(1)=   6.200000  celldm(2)=   0.000000  celldm(3)=   0.000000
     celldm(4)=   0.000000  celldm(5)=   0.000000  celldm(6)=   0.000000

     crystal axes: (cart. coord. in units of alat)
               a(1) = (   0.500000   0.500000   0.500000 )  
               a(2) = (  -0.500000   0.500000   0.500000 )  
               a(3) = (  -0.500000  -0.500000   0.500000 )  

     reciprocal axes: (cart. coord. in units 2 pi/alat)
               b(1) = (  1.000000  0.000000  1.000000 )  
               b(2) = ( -1.000000  1.000000  0.000000 )  
               b(3) = (  0.000000 -1.000000  1.000000 )  


     PseudoPot. # 1 for Nb read from file:
     ./pseudo/nb_pbe_v1.uspp.F.UPF
     MD5 check sum: 573aab8a2fa660278ed4a62cd769473f
     Pseudo is Ultrasoft + core correction, Zval = 13.0
     Generated by new atomic code, or converted to UPF format
     Using radial grid of  887 points,  6 beta functions with: 
                l(1) =   0
                l(2) =   0
                l(3) =   1
                l(4) =   1
                l(5) =   2
                l(6) =   2
     Q(r) pseudized with  6 coefficients,  rinner =    1.000   1.000   1.000
                                                       1.000   1.000

     atomic species   valence    mass     pseudopotential
        Nb            13.00    92.90600     Nb( 1.00)

     48 Sym. Ops., with inversion, found



   Cartesian axes

     site n.     atom                  positions (alat units)
         1           Nb  tau(   1) = (   0.0000000   0.0000000   0.0000000  )

     number of k points=   145  Marzari-Vanderbilt smearing, width (Ry)=  0.0300

     Number of k-points >= 100: set verbosity='high' to print them.

     Dense  grid:    26563 G-vectors     FFT dimensions: (  45,  45,  45)

     Smooth grid:     9453 G-vectors     FFT dimensions: (  30,  30,  30)

     Estimated max dynamical RAM per process >     124.08 MB

     G-vector sticks info
     --------------------
     sticks:   dense  smooth     PW     G-vecs:    dense   smooth      PW
     Sum        1215     611    181                26563     9453    1601

     Using Slab Decomposition



     bravais-lattice index     =            3
     lattice parameter (alat)  =       6.2000  a.u.
     unit-cell volume          =     119.1640 (a.u.)^3
     number of atoms/cell      =            1
     number of atomic types    =            1
     number of electrons       =        13.00
     number of Kohn-Sham states=           11
     kinetic-energy cutoff     =      70.0000  Ry
     charge density cutoff     =     560.0000  Ry
     scf convergence threshold =      1.0E-10
     mixing beta               =       0.4000
     number of iterations used =            8  plain     mixing
     Exchange-correlation= SLA  PW   PBE  PBE
                           (   1   4   3   4   0   0   0)

     celldm(1)=   6.200000  celldm(2)=   0.000000  celldm(3)=   0.000000
     celldm(4)=   0.000000  celldm(5)=   0.000000  celldm(6)=   0.000000

     crystal axes: (cart. coord. in units of alat)
               a(1) = (   0.500000   0.500000   0.500000 )  
               a(2) = (  -0.500000   0.500000   0.500000 )  
               a(3) = (  -0.500000  -0.500000   0.500000 )  

     reciprocal axes: (cart. coord. in units 2 pi/alat)
               b(1) = (  1.000000  0.000000  1.000000 )  
               b(2) = ( -1.000000  1.000000  0.000000 )  
               b(3) = (  0.000000 -1.000000  1.000000 )  


     PseudoPot. # 1 for Nb read from file:
     ./pseudo/nb_pbe_v1.uspp.F.UPF
     MD5 check sum: 573aab8a2fa660278ed4a62cd769473f
     Pseudo is Ultrasoft + core correction, Zval = 13.0
     Generated by new atomic code, or converted to UPF format
     Using radial grid of  887 points,  6 beta functions with: 
                l(1) =   0
                l(2) =   0
                l(3) =   1
                l(4) =   1
                l(5) =   2
                l(6) =   2
     Q(r) pseudized with  6 coefficients,  rinner =    1.000   1.000   1.000
                                                       1.000   1.000

     atomic species   valence    mass     pseudopotential
        Nb            13.00    92.90600     Nb( 1.00)

     48 Sym. Ops., with inversion, found



   Cartesian axes

     site n.     atom                  positions (alat units)
         1           Nb  tau(   1) = (   0.0000000   0.0000000   0.0000000  )

     number of k points=   145  Marzari-Vanderbilt smearing, width (Ry)=  0.0300

     Number of k-points >= 100: set verbosity='high' to print them.

     Dense  grid:    26563 G-vectors     FFT dimensions: (  45,  45,  45)

     Smooth grid:     9453 G-vectors     FFT dimensions: (  30,  30,  30)

     Estimated max dynamical RAM per process >     124.08 MB

     Initial potential from superposition of free atoms

     Initial potential from superposition of free atoms

     starting charge      12.9973, renormalised to      13.0000

     starting charge      12.9973, renormalised to      13.0000

     Initial potential from superposition of free atoms

     starting charge      12.9973, renormalised to      13.0000

     Initial potential from superposition of free atoms

     starting charge      12.9973, renormalised to      13.0000

     Initial potential from superposition of free atoms

     starting charge      12.9973, renormalised to      13.0000

     Initial potential from superposition of free atoms

     starting charge      12.9973, renormalised to      13.0000
     Starting wfcs are   13 randomized atomic wfcs
     Starting wfcs are   13 randomized atomic wfcs
     Starting wfcs are   13 randomized atomic wfcs
     Starting wfcs are   13 randomized atomic wfcs
     Starting wfcs are   13 randomized atomic wfcs
     Starting wfcs are   13 randomized atomic wfcs

     total cpu time spent up to now is        1.1 secs

     Self-consistent Calculation

     iteration #  1     ecut=    70.00 Ry     beta= 0.40
     Davidson diagonalization with overlap

     total cpu time spent up to now is        1.1 secs

     Self-consistent Calculation

     iteration #  1     ecut=    70.00 Ry     beta= 0.40
     Davidson diagonalization with overlap

     total cpu time spent up to now is        1.1 secs

     Self-consistent Calculation

     iteration #  1     ecut=    70.00 Ry     beta= 0.40
     Davidson diagonalization with overlap

     total cpu time spent up to now is        1.1 secs

     Self-consistent Calculation

     iteration #  1     ecut=    70.00 Ry     beta= 0.40
     Davidson diagonalization with overlap

     total cpu time spent up to now is        1.2 secs

     Self-consistent Calculation

     iteration #  1     ecut=    70.00 Ry     beta= 0.40
     Davidson diagonalization with overlap

     total cpu time spent up to now is        1.2 secs

     Self-consistent Calculation

     iteration #  1     ecut=    70.00 Ry     beta= 0.40
     Davidson diagonalization with overlap
     ethr =  1.00E-02,  avg # of iterations =  3.5
     ethr =  1.00E-02,  avg # of iterations =  3.5
     ethr =  1.00E-02,  avg # of iterations =  3.5
     ethr =  1.00E-02,  avg # of iterations =  3.5
     ethr =  1.00E-02,  avg # of iterations =  3.5
     ethr =  1.00E-02,  avg # of iterations =  3.5

     Threshold (ethr) on eigenvalues was too large:
     Diagonalizing with lowered threshold

     Davidson diagonalization with overlap

     Threshold (ethr) on eigenvalues was too large:
     Diagonalizing with lowered threshold

     Davidson diagonalization with overlap

     Threshold (ethr) on eigenvalues was too large:
     Diagonalizing with lowered threshold

     Davidson diagonalization with overlap

     Threshold (ethr) on eigenvalues was too large:
     Diagonalizing with lowered threshold

     Davidson diagonalization with overlap

     Threshold (ethr) on eigenvalues was too large:
     Diagonalizing with lowered threshold

     Davidson diagonalization with overlap

     Threshold (ethr) on eigenvalues was too large:
     Diagonalizing with lowered threshold

     Davidson diagonalization with overlap
     ethr =  6.42E-04,  avg # of iterations =  1.2
     ethr =  6.42E-04,  avg # of iterations =  1.2
     ethr =  6.42E-04,  avg # of iterations =  1.2
     ethr =  6.42E-04,  avg # of iterations =  1.2
     ethr =  6.42E-04,  avg # of iterations =  1.2
     ethr =  6.42E-04,  avg # of iterations =  1.2

     total cpu time spent up to now is        5.0 secs

     total energy              =    -117.92801269 Ry
     estimated scf accuracy    <       0.08555457 Ry

     iteration #  2     ecut=    70.00 Ry     beta= 0.40
     Davidson diagonalization with overlap

     total cpu time spent up to now is        5.1 secs

     total energy              =    -117.92801269 Ry
     estimated scf accuracy    <       0.08555457 Ry

     iteration #  2     ecut=    70.00 Ry     beta= 0.40
     Davidson diagonalization with overlap

     total cpu time spent up to now is        5.1 secs

     total energy              =    -117.92801269 Ry
     estimated scf accuracy    <       0.08555457 Ry

     iteration #  2     ecut=    70.00 Ry     beta= 0.40
     Davidson diagonalization with overlap

     total cpu time spent up to now is        5.2 secs

     total energy              =    -117.92801269 Ry
     estimated scf accuracy    <       0.08555457 Ry

     iteration #  2     ecut=    70.00 Ry     beta= 0.40
     Davidson diagonalization with overlap

     total cpu time spent up to now is        5.2 secs

     total energy              =    -117.92801269 Ry
     estimated scf accuracy    <       0.08555457 Ry

     iteration #  2     ecut=    70.00 Ry     beta= 0.40
     Davidson diagonalization with overlap

     total cpu time spent up to now is        5.2 secs

     total energy              =    -117.92801269 Ry
     estimated scf accuracy    <       0.08555457 Ry

     iteration #  2     ecut=    70.00 Ry     beta= 0.40
     Davidson diagonalization with overlap
     ethr =  6.58E-04,  avg # of iterations =  1.8
     ethr =  6.58E-04,  avg # of iterations =  1.8
     ethr =  6.58E-04,  avg # of iterations =  1.8
     ethr =  6.58E-04,  avg # of iterations =  1.8
     ethr =  6.58E-04,  avg # of iterations =  1.8

     total cpu time spent up to now is        6.8 secs

     total energy              =    -117.93055975 Ry
     estimated scf accuracy    <       0.01130840 Ry

     iteration #  3     ecut=    70.00 Ry     beta= 0.40
     Davidson diagonalization with overlap
     ethr =  6.58E-04,  avg # of iterations =  1.8

     total cpu time spent up to now is        6.9 secs

     total energy              =    -117.93055975 Ry
     estimated scf accuracy    <       0.01130840 Ry

     iteration #  3     ecut=    70.00 Ry     beta= 0.40
     Davidson diagonalization with overlap

     total cpu time spent up to now is        7.0 secs

     total energy              =    -117.93055975 Ry
     estimated scf accuracy    <       0.01130840 Ry

     iteration #  3     ecut=    70.00 Ry     beta= 0.40
     Davidson diagonalization with overlap

     total cpu time spent up to now is        7.1 secs

     total energy              =    -117.93055975 Ry
     estimated scf accuracy    <       0.01130840 Ry

     iteration #  3     ecut=    70.00 Ry     beta= 0.40
     Davidson diagonalization with overlap

     total cpu time spent up to now is        7.2 secs

     total energy              =    -117.93055975 Ry
     estimated scf accuracy    <       0.01130840 Ry

     iteration #  3     ecut=    70.00 Ry     beta= 0.40
     Davidson diagonalization with overlap

     total cpu time spent up to now is        7.3 secs

     total energy              =    -117.93055975 Ry
     estimated scf accuracy    <       0.01130840 Ry

     iteration #  3     ecut=    70.00 Ry     beta= 0.40
     Davidson diagonalization with overlap
     ethr =  8.70E-05,  avg # of iterations =  2.6
     ethr =  8.70E-05,  avg # of iterations =  2.6
     ethr =  8.70E-05,  avg # of iterations =  2.6
     ethr =  8.70E-05,  avg # of iterations =  2.6
     ethr =  8.70E-05,  avg # of iterations =  2.6

     total cpu time spent up to now is        8.9 secs

     total energy              =    -117.93251382 Ry
     estimated scf accuracy    <       0.00062561 Ry

     iteration #  4     ecut=    70.00 Ry     beta= 0.40
     Davidson diagonalization with overlap

     total cpu time spent up to now is        9.0 secs

     total energy              =    -117.93251382 Ry
     estimated scf accuracy    <       0.00062561 Ry

     iteration #  4     ecut=    70.00 Ry     beta= 0.40
     Davidson diagonalization with overlap
     ethr =  8.70E-05,  avg # of iterations =  2.6

     total cpu time spent up to now is        9.0 secs

     total energy              =    -117.93251382 Ry
     estimated scf accuracy    <       0.00062561 Ry

     iteration #  4     ecut=    70.00 Ry     beta= 0.40
     Davidson diagonalization with overlap

     total cpu time spent up to now is        9.2 secs

     total energy              =    -117.93251382 Ry
     estimated scf accuracy    <       0.00062561 Ry

     iteration #  4     ecut=    70.00 Ry     beta= 0.40
     Davidson diagonalization with overlap

     total cpu time spent up to now is        9.3 secs

     total energy              =    -117.93251382 Ry
     estimated scf accuracy    <       0.00062561 Ry

     iteration #  4     ecut=    70.00 Ry     beta= 0.40
     Davidson diagonalization with overlap

     total cpu time spent up to now is        9.4 secs

     total energy              =    -117.93251382 Ry
     estimated scf accuracy    <       0.00062561 Ry

     iteration #  4     ecut=    70.00 Ry     beta= 0.40
     Davidson diagonalization with overlap
     ethr =  4.81E-06,  avg # of iterations =  3.0
     ethr =  4.81E-06,  avg # of iterations =  3.0
     ethr =  4.81E-06,  avg # of iterations =  3.0
     ethr =  4.81E-06,  avg # of iterations =  3.0

     total cpu time spent up to now is       11.0 secs

     total energy              =    -117.93256327 Ry
     estimated scf accuracy    <       0.00006832 Ry

     iteration #  5     ecut=    70.00 Ry     beta= 0.40
     Davidson diagonalization with overlap
     ethr =  4.81E-06,  avg # of iterations =  3.0

     total cpu time spent up to now is       11.1 secs

     total energy              =    -117.93256327 Ry
     estimated scf accuracy    <       0.00006832 Ry

     iteration #  5     ecut=    70.00 Ry     beta= 0.40
     Davidson diagonalization with overlap
     ethr =  4.81E-06,  avg # of iterations =  3.0

     total cpu time spent up to now is       11.2 secs

     total energy              =    -117.93256327 Ry
     estimated scf accuracy    <       0.00006832 Ry

     iteration #  5     ecut=    70.00 Ry     beta= 0.40
     Davidson diagonalization with overlap

     total cpu time spent up to now is       11.3 secs

     total energy              =    -117.93256327 Ry
     estimated scf accuracy    <       0.00006832 Ry

     iteration #  5     ecut=    70.00 Ry     beta= 0.40
     Davidson diagonalization with overlap

     total cpu time spent up to now is       11.5 secs

     total energy              =    -117.93256327 Ry
     estimated scf accuracy    <       0.00006832 Ry

     iteration #  5     ecut=    70.00 Ry     beta= 0.40
     Davidson diagonalization with overlap

     total cpu time spent up to now is       11.5 secs

     total energy              =    -117.93256327 Ry
     estimated scf accuracy    <       0.00006832 Ry

     iteration #  5     ecut=    70.00 Ry     beta= 0.40
     Davidson diagonalization with overlap
     ethr =  5.26E-07,  avg # of iterations =  2.2
     ethr =  5.26E-07,  avg # of iterations =  2.2
     ethr =  5.26E-07,  avg # of iterations =  2.2
     ethr =  5.26E-07,  avg # of iterations =  2.2

     total cpu time spent up to now is       13.1 secs

     total energy              =    -117.93257971 Ry
     estimated scf accuracy    <       0.00001226 Ry

     iteration #  6     ecut=    70.00 Ry     beta= 0.40
     Davidson diagonalization with overlap

     total cpu time spent up to now is       13.2 secs

     total energy              =    -117.93257971 Ry
     estimated scf accuracy    <       0.00001226 Ry

     iteration #  6     ecut=    70.00 Ry     beta= 0.40
     Davidson diagonalization with overlap
     ethr =  5.26E-07,  avg # of iterations =  2.2
     ethr =  5.26E-07,  avg # of iterations =  2.2

     total cpu time spent up to now is       13.4 secs

     total energy              =    -117.93257971 Ry
     estimated scf accuracy    <       0.00001226 Ry

     iteration #  6     ecut=    70.00 Ry     beta= 0.40
     Davidson diagonalization with overlap

     total cpu time spent up to now is       13.5 secs

     total energy              =    -117.93257971 Ry
     estimated scf accuracy    <       0.00001226 Ry

     iteration #  6     ecut=    70.00 Ry     beta= 0.40
     Davidson diagonalization with overlap

     total cpu time spent up to now is       13.7 secs

     total energy              =    -117.93257971 Ry
     estimated scf accuracy    <       0.00001226 Ry

     iteration #  6     ecut=    70.00 Ry     beta= 0.40
     Davidson diagonalization with overlap

     total cpu time spent up to now is       13.7 secs

     total energy              =    -117.93257971 Ry
     estimated scf accuracy    <       0.00001226 Ry

     iteration #  6     ecut=    70.00 Ry     beta= 0.40
     Davidson diagonalization with overlap
     ethr =  9.43E-08,  avg # of iterations =  2.0
     ethr =  9.43E-08,  avg # of iterations =  2.0
     ethr =  9.43E-08,  avg # of iterations =  2.0
     ethr =  9.43E-08,  avg # of iterations =  2.0

     total cpu time spent up to now is       15.1 secs

     total energy              =    -117.93258137 Ry
     estimated scf accuracy    <       0.00000002 Ry

     iteration #  7     ecut=    70.00 Ry     beta= 0.40
     Davidson diagonalization with overlap

     total cpu time spent up to now is       15.2 secs

     total energy              =    -117.93258137 Ry
     estimated scf accuracy    <       0.00000002 Ry

     iteration #  7     ecut=    70.00 Ry     beta= 0.40
     Davidson diagonalization with overlap
     ethr =  9.43E-08,  avg # of iterations =  2.0
     ethr =  9.43E-08,  avg # of iterations =  2.0

     total cpu time spent up to now is       15.4 secs

     total energy              =    -117.93258137 Ry
     estimated scf accuracy    <       0.00000002 Ry

     iteration #  7     ecut=    70.00 Ry     beta= 0.40
     Davidson diagonalization with overlap

     total cpu time spent up to now is       15.4 secs

     total energy              =    -117.93258137 Ry
     estimated scf accuracy    <       0.00000002 Ry

     iteration #  7     ecut=    70.00 Ry     beta= 0.40
     Davidson diagonalization with overlap

     total cpu time spent up to now is       15.5 secs

     total energy              =    -117.93258137 Ry
     estimated scf accuracy    <       0.00000002 Ry

     iteration #  7     ecut=    70.00 Ry     beta= 0.40
     Davidson diagonalization with overlap

     total cpu time spent up to now is       15.7 secs

     total energy              =    -117.93258137 Ry
     estimated scf accuracy    <       0.00000002 Ry

     iteration #  7     ecut=    70.00 Ry     beta= 0.40
     Davidson diagonalization with overlap
     ethr =  1.73E-10,  avg # of iterations =  3.1
     ethr =  1.73E-10,  avg # of iterations =  3.1
     ethr =  1.73E-10,  avg # of iterations =  3.1

     total cpu time spent up to now is       17.3 secs

     total energy              =    -117.93258139 Ry
     estimated scf accuracy    <       0.00000002 Ry

     iteration #  8     ecut=    70.00 Ry     beta= 0.40
     Davidson diagonalization with overlap
     ethr =  1.73E-10,  avg # of iterations =  3.1
     ethr =  1.73E-10,  avg # of iterations =  3.1

     total cpu time spent up to now is       17.6 secs

     total energy              =    -117.93258139 Ry
     estimated scf accuracy    <       0.00000002 Ry

     iteration #  8     ecut=    70.00 Ry     beta= 0.40
     Davidson diagonalization with overlap
     ethr =  1.73E-10,  avg # of iterations =  3.1

     total cpu time spent up to now is       17.6 secs

     total energy              =    -117.93258139 Ry
     estimated scf accuracy    <       0.00000002 Ry

     iteration #  8     ecut=    70.00 Ry     beta= 0.40
     Davidson diagonalization with overlap

     total cpu time spent up to now is       17.8 secs

     total energy              =    -117.93258139 Ry
     estimated scf accuracy    <       0.00000002 Ry

     iteration #  8     ecut=    70.00 Ry     beta= 0.40
     Davidson diagonalization with overlap

     total cpu time spent up to now is       17.9 secs

     total energy              =    -117.93258139 Ry
     estimated scf accuracy    <       0.00000002 Ry

     iteration #  8     ecut=    70.00 Ry     beta= 0.40
     Davidson diagonalization with overlap

     total cpu time spent up to now is       18.0 secs

     total energy              =    -117.93258139 Ry
     estimated scf accuracy    <       0.00000002 Ry

     iteration #  8     ecut=    70.00 Ry     beta= 0.40
     Davidson diagonalization with overlap
     ethr =  1.73E-10,  avg # of iterations =  1.0
     ethr =  1.73E-10,  avg # of iterations =  1.0
     ethr =  1.73E-10,  avg # of iterations =  1.0

     total cpu time spent up to now is       19.1 secs

     total energy              =    -117.93258139 Ry
     estimated scf accuracy    <          3.1E-09 Ry

     iteration #  9     ecut=    70.00 Ry     beta= 0.40
     Davidson diagonalization with overlap
     ethr =  1.73E-10,  avg # of iterations =  1.0
     ethr =  1.73E-10,  avg # of iterations =  1.0

     total cpu time spent up to now is       19.3 secs

     total energy              =    -117.93258139 Ry
     estimated scf accuracy    <          3.1E-09 Ry

     iteration #  9     ecut=    70.00 Ry     beta= 0.40
     Davidson diagonalization with overlap
     ethr =  1.73E-10,  avg # of iterations =  1.0

     total cpu time spent up to now is       19.5 secs

     total energy              =    -117.93258139 Ry
     estimated scf accuracy    <          3.1E-09 Ry

     iteration #  9     ecut=    70.00 Ry     beta= 0.40
     Davidson diagonalization with overlap

     total cpu time spent up to now is       19.5 secs

     total energy              =    -117.93258139 Ry
     estimated scf accuracy    <          3.1E-09 Ry

     iteration #  9     ecut=    70.00 Ry     beta= 0.40
     Davidson diagonalization with overlap

     total cpu time spent up to now is       19.6 secs

     total energy              =    -117.93258139 Ry
     estimated scf accuracy    <          3.1E-09 Ry

     iteration #  9     ecut=    70.00 Ry     beta= 0.40
     Davidson diagonalization with overlap

     total cpu time spent up to now is       19.8 secs

     total energy              =    -117.93258139 Ry
     estimated scf accuracy    <          3.1E-09 Ry

     iteration #  9     ecut=    70.00 Ry     beta= 0.40
     Davidson diagonalization with overlap
     ethr =  2.38E-11,  avg # of iterations =  2.0
     ethr =  2.38E-11,  avg # of iterations =  2.0
     ethr =  2.38E-11,  avg # of iterations =  2.0

     total cpu time spent up to now is       21.2 secs

     total energy              =    -117.93258139 Ry
     estimated scf accuracy    <          4.4E-10 Ry

     iteration # 10     ecut=    70.00 Ry     beta= 0.40
     Davidson diagonalization with overlap
     ethr =  2.38E-11,  avg # of iterations =  2.0
     ethr =  2.38E-11,  avg # of iterations =  2.0

     total cpu time spent up to now is       21.3 secs

     total energy              =    -117.93258139 Ry
     estimated scf accuracy    <          4.4E-10 Ry

     iteration # 10     ecut=    70.00 Ry     beta= 0.40
     Davidson diagonalization with overlap

     total cpu time spent up to now is       21.5 secs

     total energy              =    -117.93258139 Ry
     estimated scf accuracy    <          4.4E-10 Ry

     iteration # 10     ecut=    70.00 Ry     beta= 0.40
     Davidson diagonalization with overlap
     ethr =  2.38E-11,  avg # of iterations =  2.0

     total cpu time spent up to now is       21.6 secs

     total energy              =    -117.93258139 Ry
     estimated scf accuracy    <          4.4E-10 Ry

     iteration # 10     ecut=    70.00 Ry     beta= 0.40
     Davidson diagonalization with overlap

     total cpu time spent up to now is       21.8 secs

     total energy              =    -117.93258139 Ry
     estimated scf accuracy    <          4.4E-10 Ry

     iteration # 10     ecut=    70.00 Ry     beta= 0.40
     Davidson diagonalization with overlap

     total cpu time spent up to now is       21.9 secs

     total energy              =    -117.93258139 Ry
     estimated scf accuracy    <          4.4E-10 Ry

     iteration # 10     ecut=    70.00 Ry     beta= 0.40
     Davidson diagonalization with overlap
     ethr =  3.42E-12,  avg # of iterations =  1.0
     ethr =  3.42E-12,  avg # of iterations =  1.0
     ethr =  3.42E-12,  avg # of iterations =  1.0

     total cpu time spent up to now is       22.9 secs

     total energy              =    -117.93258139 Ry
     estimated scf accuracy    <          2.1E-10 Ry

     iteration # 11     ecut=    70.00 Ry     beta= 0.40
     Davidson diagonalization with overlap
     ethr =  3.42E-12,  avg # of iterations =  1.0

     total cpu time spent up to now is       23.1 secs

     total energy              =    -117.93258139 Ry
     estimated scf accuracy    <          2.1E-10 Ry

     iteration # 11     ecut=    70.00 Ry     beta= 0.40
     Davidson diagonalization with overlap
     ethr =  3.42E-12,  avg # of iterations =  1.0

     total cpu time spent up to now is       23.2 secs

     total energy              =    -117.93258139 Ry
     estimated scf accuracy    <          2.1E-10 Ry

     iteration # 11     ecut=    70.00 Ry     beta= 0.40
     Davidson diagonalization with overlap
     ethr =  3.42E-12,  avg # of iterations =  1.0

     total cpu time spent up to now is       23.4 secs

     total energy              =    -117.93258139 Ry
     estimated scf accuracy    <          2.1E-10 Ry

     iteration # 11     ecut=    70.00 Ry     beta= 0.40
     Davidson diagonalization with overlap

     total cpu time spent up to now is       23.6 secs

     total energy              =    -117.93258139 Ry
     estimated scf accuracy    <          2.1E-10 Ry

     iteration # 11     ecut=    70.00 Ry     beta= 0.40
     Davidson diagonalization with overlap

     total cpu time spent up to now is       23.6 secs

     total energy              =    -117.93258139 Ry
     estimated scf accuracy    <          2.1E-10 Ry

     iteration # 11     ecut=    70.00 Ry     beta= 0.40
     Davidson diagonalization with overlap
     ethr =  1.61E-12,  avg # of iterations =  2.0
     ethr =  1.61E-12,  avg # of iterations =  2.0
     ethr =  1.61E-12,  avg # of iterations =  2.0

     total cpu time spent up to now is       24.9 secs

     End of self-consistent calculation

     Number of k-points >= 100: set verbosity='high' to print the bands.

     the Fermi energy is    18.4136 ev

!    total energy              =    -117.93258139 Ry
     estimated scf accuracy    <          2.1E-11 Ry
     smearing contrib. (-TS)   =      -0.00001167 Ry
     internal energy E=F+TS    =    -117.93256972 Ry

     The total energy is F=E-TS. E is the sum of the following terms:
     one-electron contribution =     -14.95401390 Ry
     hartree contribution      =      14.68845406 Ry
     xc contribution           =     -18.46854972 Ry
     ewald contribution        =     -99.19846016 Ry

     convergence has been achieved in  11 iterations

     Writing all to output data dir ./tmp/Nb_eos_6.20.save/

     init_run     :      1.06s CPU      1.12s WALL (       1 calls)
     electrons    :     22.74s CPU     23.69s WALL (       1 calls)

     Called by init_run:
     wfcinit      :      0.82s CPU      0.84s WALL (       1 calls)
     potinit      :      0.02s CPU      0.02s WALL (       1 calls)
     hinit0       :      0.18s CPU      0.21s WALL (       1 calls)

     Called by electrons:
     c_bands      :     18.18s CPU     18.85s WALL (      12 calls)
     sum_band     :      4.12s CPU      4.33s WALL (      12 calls)
     v_of_rho     :      0.21s CPU      0.23s WALL (      12 calls)
     newd         :      0.23s CPU      0.29s WALL (      12 calls)
     mix_rho      :      0.02s CPU      0.02s WALL (      12 calls)

     Called by c_bands:
     init_us_2    :      0.47s CPU      0.49s WALL (    3625 calls)
     init_us_2:cp :      0.47s CPU      0.49s WALL (    3625 calls)
     cegterg      :     17.46s CPU     18.09s WALL (    1740 calls)

     Called by *egterg:
     cdiaghg      :      0.34s CPU      0.35s WALL (    5305 calls)
     h_psi        :     15.99s CPU     16.50s WALL (    5595 calls)
     s_psi        :      0.30s CPU      0.31s WALL (    5595 calls)
     g_psi        :      0.05s CPU      0.05s WALL (    3710 calls)

     Called by h_psi:
     h_psi:calbec :      0.34s CPU      0.36s WALL (    5595 calls)
     vloc_psi     :     15.31s CPU     15.79s WALL (    5595 calls)
     add_vuspsi   :      0.30s CPU      0.31s WALL (    5595 calls)

     General routines
     calbec       :      0.48s CPU      0.49s WALL (    7335 calls)
     fft          :      0.11s CPU      0.11s WALL (     155 calls)
     ffts         :      0.01s CPU      0.01s WALL (      24 calls)
     fftw         :     15.59s CPU     16.09s WALL (  111846 calls)
     interpolate  :      0.01s CPU      0.02s WALL (      12 calls)


     PWSCF        :     23.87s CPU     24.95s WALL


   This run was terminated on:  23:15:38   6Mar2026            

=------------------------------------------------------------------------------=
   JOB DONE.
=------------------------------------------------------------------------------=
Note: The following floating-point exceptions are signalling: IEEE_INVALID_FLAG IEEE_DIVIDE_BY_ZERO IEEE_UNDERFLOW_FLAG
     ethr =  1.61E-12,  avg # of iterations =  2.0

     total cpu time spent up to now is       25.2 secs

     End of self-consistent calculation

     Number of k-points >= 100: set verbosity='high' to print the bands.

     the Fermi energy is    18.4136 ev

!    total energy              =    -117.93258139 Ry
     estimated scf accuracy    <          2.1E-11 Ry
     smearing contrib. (-TS)   =      -0.00001167 Ry
     internal energy E=F+TS    =    -117.93256972 Ry

     The total energy is F=E-TS. E is the sum of the following terms:
     one-electron contribution =     -14.95401390 Ry
     hartree contribution      =      14.68845406 Ry
     xc contribution           =     -18.46854972 Ry
     ewald contribution        =     -99.19846016 Ry

     convergence has been achieved in  11 iterations

     Writing all to output data dir ./tmp/Nb_eos_6.20.save/

     total cpu time spent up to now is       25.2 secs

     End of self-consistent calculation

     Number of k-points >= 100: set verbosity='high' to print the bands.

     the Fermi energy is    18.4136 ev

!    total energy              =    -117.93258139 Ry
     estimated scf accuracy    <          2.1E-11 Ry
     smearing contrib. (-TS)   =      -0.00001167 Ry
     internal energy E=F+TS    =    -117.93256972 Ry

     The total energy is F=E-TS. E is the sum of the following terms:
     one-electron contribution =     -14.95401390 Ry
     hartree contribution      =      14.68845406 Ry
     xc contribution           =     -18.46854972 Ry
     ewald contribution        =     -99.19846016 Ry

     convergence has been achieved in  11 iterations

     Writing all to output data dir ./tmp/Nb_eos_6.20.save/

     init_run     :      1.00s CPU      1.03s WALL (       1 calls)
     electrons    :     22.94s CPU     24.10s WALL (       1 calls)

     Called by init_run:
     wfcinit      :      0.78s CPU      0.78s WALL (       1 calls)
     potinit      :      0.02s CPU      0.02s WALL (       1 calls)
     hinit0       :      0.16s CPU      0.18s WALL (       1 calls)

     Called by electrons:
     c_bands      :     18.30s CPU     19.20s WALL (      12 calls)
     sum_band     :      4.18s CPU      4.35s WALL (      12 calls)
     v_of_rho     :      0.22s CPU      0.23s WALL (      12 calls)
     newd         :      0.24s CPU      0.31s WALL (      12 calls)
     mix_rho      :      0.02s CPU      0.03s WALL (      12 calls)

     Called by c_bands:
     init_us_2    :      0.47s CPU      0.50s WALL (    3625 calls)
     init_us_2:cp :      0.47s CPU      0.50s WALL (    3625 calls)
     cegterg      :     17.58s CPU     18.43s WALL (    1740 calls)

     Called by *egterg:
     cdiaghg      :      0.34s CPU      0.36s WALL (    5305 calls)
     h_psi        :     16.07s CPU     16.77s WALL (    5595 calls)
     s_psi        :      0.30s CPU      0.31s WALL (    5595 calls)
     g_psi        :      0.05s CPU      0.05s WALL (    3710 calls)

     Called by h_psi:
     h_psi:calbec :      0.35s CPU      0.36s WALL (    5595 calls)
     vloc_psi     :     15.39s CPU     16.04s WALL (    5595 calls)
     add_vuspsi   :      0.30s CPU      0.31s WALL (    5595 calls)

     General routines
     calbec       :      0.48s CPU      0.50s WALL (    7335 calls)
     fft          :      0.11s CPU      0.12s WALL (     155 calls)
     ffts         :      0.01s CPU      0.01s WALL (      24 calls)
     fftw         :     15.67s CPU     16.30s WALL (  111846 calls)
     interpolate  :      0.02s CPU      0.02s WALL (      12 calls)


     PWSCF        :     24.01s CPU     25.23s WALL


   This run was terminated on:  23:15:38   6Mar2026            

=------------------------------------------------------------------------------=
   JOB DONE.
=------------------------------------------------------------------------------=
Note: The following floating-point exceptions are signalling: IEEE_INVALID_FLAG IEEE_DIVIDE_BY_ZERO IEEE_UNDERFLOW_FLAG
     ethr =  1.61E-12,  avg # of iterations =  2.0

     init_run     :      1.04s CPU      1.09s WALL (       1 calls)
     electrons    :     23.09s CPU     24.05s WALL (       1 calls)

     Called by init_run:
     wfcinit      :      0.80s CPU      0.84s WALL (       1 calls)
     potinit      :      0.03s CPU      0.03s WALL (       1 calls)
     hinit0       :      0.16s CPU      0.17s WALL (       1 calls)

     Called by electrons:
     c_bands      :     18.50s CPU     19.23s WALL (      12 calls)
     sum_band     :      4.11s CPU      4.27s WALL (      12 calls)
     v_of_rho     :      0.23s CPU      0.24s WALL (      12 calls)
     newd         :      0.25s CPU      0.31s WALL (      12 calls)
     mix_rho      :      0.02s CPU      0.02s WALL (      12 calls)

     Called by c_bands:
     init_us_2    :      0.47s CPU      0.49s WALL (    3625 calls)
     init_us_2:cp :      0.47s CPU      0.48s WALL (    3625 calls)
     cegterg      :     17.78s CPU     18.48s WALL (    1740 calls)

     Called by *egterg:
     cdiaghg      :      0.34s CPU      0.35s WALL (    5305 calls)
     h_psi        :     16.25s CPU     16.79s WALL (    5595 calls)
     s_psi        :      0.30s CPU      0.31s WALL (    5595 calls)
     g_psi        :      0.05s CPU      0.05s WALL (    3710 calls)

     Called by h_psi:
     h_psi:calbec :      0.35s CPU      0.36s WALL (    5595 calls)
     vloc_psi     :     15.56s CPU     16.06s WALL (    5595 calls)
     add_vuspsi   :      0.31s CPU      0.32s WALL (    5595 calls)

     General routines
     calbec       :      0.48s CPU      0.50s WALL (    7335 calls)
     fft          :      0.12s CPU      0.13s WALL (     155 calls)
     ffts         :      0.01s CPU      0.01s WALL (      24 calls)
     fftw         :     15.78s CPU     16.25s WALL (  111846 calls)
     interpolate  :      0.02s CPU      0.02s WALL (      12 calls)


     PWSCF        :     24.19s CPU     25.25s WALL


   This run was terminated on:  23:15:38   6Mar2026            

=------------------------------------------------------------------------------=
   JOB DONE.
=------------------------------------------------------------------------------=
Note: The following floating-point exceptions are signalling: IEEE_INVALID_FLAG IEEE_DIVIDE_BY_ZERO IEEE_UNDERFLOW_FLAG
     ethr =  1.61E-12,  avg # of iterations =  2.0

     total cpu time spent up to now is       25.5 secs

     End of self-consistent calculation

     Number of k-points >= 100: set verbosity='high' to print the bands.

     the Fermi energy is    18.4136 ev

!    total energy              =    -117.93258139 Ry
     estimated scf accuracy    <          2.1E-11 Ry
     smearing contrib. (-TS)   =      -0.00001167 Ry
     internal energy E=F+TS    =    -117.93256972 Ry

     The total energy is F=E-TS. E is the sum of the following terms:
     one-electron contribution =     -14.95401390 Ry
     hartree contribution      =      14.68845406 Ry
     xc contribution           =     -18.46854972 Ry
     ewald contribution        =     -99.19846016 Ry

     convergence has been achieved in  11 iterations

     Writing all to output data dir ./tmp/Nb_eos_6.20.save/

     init_run     :      1.07s CPU      1.12s WALL (       1 calls)
     electrons    :     23.33s CPU     24.27s WALL (       1 calls)

     Called by init_run:
     wfcinit      :      0.83s CPU      0.86s WALL (       1 calls)
     potinit      :      0.03s CPU      0.03s WALL (       1 calls)
     hinit0       :      0.17s CPU      0.19s WALL (       1 calls)

     Called by electrons:
     c_bands      :     18.69s CPU     19.40s WALL (      12 calls)
     sum_band     :      4.17s CPU      4.34s WALL (      12 calls)
     v_of_rho     :      0.22s CPU      0.23s WALL (      12 calls)
     newd         :      0.25s CPU      0.31s WALL (      12 calls)
     mix_rho      :      0.02s CPU      0.02s WALL (      12 calls)

     Called by c_bands:
     init_us_2    :      0.48s CPU      0.50s WALL (    3625 calls)
     init_us_2:cp :      0.48s CPU      0.50s WALL (    3625 calls)
     cegterg      :     17.95s CPU     18.63s WALL (    1740 calls)

     Called by *egterg:
     cdiaghg      :      0.34s CPU      0.35s WALL (    5305 calls)
     h_psi        :     16.44s CPU     16.98s WALL (    5595 calls)
     s_psi        :      0.31s CPU      0.32s WALL (    5595 calls)
     g_psi        :      0.05s CPU      0.05s WALL (    3710 calls)

     Called by h_psi:
     h_psi:calbec :      0.35s CPU      0.37s WALL (    5595 calls)
     vloc_psi     :     15.74s CPU     16.24s WALL (    5595 calls)
     add_vuspsi   :      0.31s CPU      0.32s WALL (    5595 calls)

     General routines
     calbec       :      0.49s CPU      0.50s WALL (    7335 calls)
     fft          :      0.11s CPU      0.12s WALL (     155 calls)
     ffts         :      0.01s CPU      0.01s WALL (      24 calls)
     fftw         :     15.99s CPU     16.47s WALL (  111846 calls)
     interpolate  :      0.01s CPU      0.02s WALL (      12 calls)


     PWSCF        :     24.47s CPU     25.50s WALL


   This run was terminated on:  23:15:39   6Mar2026            

=------------------------------------------------------------------------------=
   JOB DONE.
=------------------------------------------------------------------------------=
Note: The following floating-point exceptions are signalling: IEEE_INVALID_FLAG IEEE_DIVIDE_BY_ZERO IEEE_UNDERFLOW_FLAG

     total cpu time spent up to now is       25.6 secs

     End of self-consistent calculation

     Number of k-points >= 100: set verbosity='high' to print the bands.

     the Fermi energy is    18.4136 ev

!    total energy              =    -117.93258139 Ry
     estimated scf accuracy    <          2.1E-11 Ry
     smearing contrib. (-TS)   =      -0.00001167 Ry
     internal energy E=F+TS    =    -117.93256972 Ry

     The total energy is F=E-TS. E is the sum of the following terms:
     one-electron contribution =     -14.95401390 Ry
     hartree contribution      =      14.68845406 Ry
     xc contribution           =     -18.46854972 Ry
     ewald contribution        =     -99.19846016 Ry

     convergence has been achieved in  11 iterations

     Writing all to output data dir ./tmp/Nb_eos_6.20.save/

     total cpu time spent up to now is       25.6 secs

     End of self-consistent calculation

     Number of k-points >= 100: set verbosity='high' to print the bands.

     the Fermi energy is    18.4136 ev

!    total energy              =    -117.93258139 Ry
     estimated scf accuracy    <          2.1E-11 Ry
     smearing contrib. (-TS)   =      -0.00001167 Ry
     internal energy E=F+TS    =    -117.93256972 Ry

     The total energy is F=E-TS. E is the sum of the following terms:
     one-electron contribution =     -14.95401390 Ry
     hartree contribution      =      14.68845406 Ry
     xc contribution           =     -18.46854972 Ry
     ewald contribution        =     -99.19846016 Ry

     convergence has been achieved in  11 iterations

     Writing all to output data dir ./tmp/Nb_eos_6.20.save/

     init_run     :      1.04s CPU      1.09s WALL (       1 calls)
     electrons    :     23.31s CPU     24.46s WALL (       1 calls)

     Called by init_run:
     wfcinit      :      0.81s CPU      0.83s WALL (       1 calls)
     potinit      :      0.03s CPU      0.03s WALL (       1 calls)
     hinit0       :      0.16s CPU      0.17s WALL (       1 calls)

     Called by electrons:
     c_bands      :     18.71s CPU     19.60s WALL (      12 calls)
     sum_band     :      4.13s CPU      4.30s WALL (      12 calls)
     v_of_rho     :      0.23s CPU      0.26s WALL (      12 calls)
     newd         :      0.25s CPU      0.32s WALL (      12 calls)
     mix_rho      :      0.02s CPU      0.03s WALL (      12 calls)

     Called by c_bands:
     init_us_2    :      0.48s CPU      0.49s WALL (    3625 calls)
     init_us_2:cp :      0.48s CPU      0.49s WALL (    3625 calls)
     cegterg      :     17.97s CPU     18.83s WALL (    1740 calls)

     Called by *egterg:
     cdiaghg      :      0.34s CPU      0.36s WALL (    5305 calls)
     h_psi        :     16.43s CPU     17.12s WALL (    5595 calls)
     s_psi        :      0.31s CPU      0.32s WALL (    5595 calls)
     g_psi        :      0.05s CPU      0.05s WALL (    3710 calls)

     Called by h_psi:
     h_psi:calbec :      0.35s CPU      0.37s WALL (    5595 calls)
     vloc_psi     :     15.73s CPU     16.37s WALL (    5595 calls)
     add_vuspsi   :      0.31s CPU      0.33s WALL (    5595 calls)

     General routines
     calbec       :      0.49s CPU      0.50s WALL (    7335 calls)
     fft          :      0.12s CPU      0.13s WALL (     155 calls)
     ffts         :      0.01s CPU      0.01s WALL (      24 calls)
     fftw         :     15.94s CPU     16.53s WALL (  111846 calls)
     interpolate  :      0.02s CPU      0.02s WALL (      12 calls)


     PWSCF        :     24.42s CPU     25.65s WALL


   This run was terminated on:  23:15:39   6Mar2026            

=------------------------------------------------------------------------------=
   JOB DONE.
=------------------------------------------------------------------------------=
Note: The following floating-point exceptions are signalling: IEEE_INVALID_FLAG IEEE_DIVIDE_BY_ZERO IEEE_UNDERFLOW_FLAG

     init_run     :      0.99s CPU      1.06s WALL (       1 calls)
     electrons    :     23.40s CPU     24.53s WALL (       1 calls)

     Called by init_run:
     wfcinit      :      0.77s CPU      0.82s WALL (       1 calls)
     potinit      :      0.02s CPU      0.02s WALL (       1 calls)
     hinit0       :      0.16s CPU      0.17s WALL (       1 calls)

     Called by electrons:
     c_bands      :     18.72s CPU     19.51s WALL (      12 calls)
     sum_band     :      4.21s CPU      4.47s WALL (      12 calls)
     v_of_rho     :      0.23s CPU      0.25s WALL (      12 calls)
     newd         :      0.24s CPU      0.30s WALL (      12 calls)
     mix_rho      :      0.02s CPU      0.02s WALL (      12 calls)

     Called by c_bands:
     init_us_2    :      0.48s CPU      0.50s WALL (    3625 calls)
     init_us_2:cp :      0.48s CPU      0.50s WALL (    3625 calls)
     cegterg      :     17.97s CPU     18.73s WALL (    1740 calls)

     Called by *egterg:
     cdiaghg      :      0.34s CPU      0.36s WALL (    5305 calls)
     h_psi        :     16.41s CPU     17.03s WALL (    5595 calls)
     s_psi        :      0.31s CPU      0.32s WALL (    5595 calls)
     g_psi        :      0.05s CPU      0.05s WALL (    3710 calls)

     Called by h_psi:
     h_psi:calbec :      0.35s CPU      0.36s WALL (    5595 calls)
     vloc_psi     :     15.72s CPU     16.30s WALL (    5595 calls)
     add_vuspsi   :      0.31s CPU      0.32s WALL (    5595 calls)

     General routines
     calbec       :      0.49s CPU      0.50s WALL (    7335 calls)
     fft          :      0.12s CPU      0.13s WALL (     155 calls)
     ffts         :      0.01s CPU      0.01s WALL (      24 calls)
     fftw         :     15.99s CPU     16.62s WALL (  111846 calls)
     interpolate  :      0.02s CPU      0.02s WALL (      12 calls)


     PWSCF        :     24.45s CPU     25.69s WALL


   This run was terminated on:  23:15:39   6Mar2026            

=------------------------------------------------------------------------------=
   JOB DONE.
=------------------------------------------------------------------------------=
Note: The following floating-point exceptions are signalling: IEEE_INVALID_FLAG IEEE_DIVIDE_BY_ZERO IEEE_UNDERFLOW_FLAG
