
     Program PWSCF v.7.2 starts on  6Mar2026 at 23:16: 6 

     This program is part of the open-source Quantum ESPRESSO suite
     for quantum simulation of materials; please cite
         "P. Giannozzi et al., J. Phys.:Condens. Matter 21 395502 (2009);
         "P. Giannozzi et al., J. Phys.:Condens. Matter 29 465901 (2017);
         "P. Giannozzi et al., J. Chem. Phys. 152 154105 (2020);
          URL http://www.quantum-espresso.org", 
     in publications or presentations arising from this work. More details at
     http://www.quantum-espresso.org/quote

     Serial multi-threaded version, running on    1 processor cores
     0 MiB available memory on the printing compute node when the environment starts


     Program PWSCF v.7.2 starts on  6Mar2026 at 23:16: 6 

     This program is part of the open-source Quantum ESPRESSO suite
     for quantum simulation of materials; please cite
         "P. Giannozzi et al., J. Phys.:Condens. Matter 21 395502 (2009);
         "P. Giannozzi et al., J. Phys.:Condens. Matter 29 465901 (2017);
         "P. Giannozzi et al., J. Chem. Phys. 152 154105 (2020);
          URL http://www.quantum-espresso.org", 
     in publications or presentations arising from this work. More details at
     http://www.quantum-espresso.org/quote

     Serial multi-threaded version, running on    1 processor cores
     0 MiB available memory on the printing compute node when the environment starts

     Reading input from results/eos/Nb_eos_6.30.in

     Program PWSCF v.7.2 starts on  6Mar2026 at 23:16: 6 

     This program is part of the open-source Quantum ESPRESSO suite
     for quantum simulation of materials; please cite
         "P. Giannozzi et al., J. Phys.:Condens. Matter 21 395502 (2009);
         "P. Giannozzi et al., J. Phys.:Condens. Matter 29 465901 (2017);
         "P. Giannozzi et al., J. Chem. Phys. 152 154105 (2020);
          URL http://www.quantum-espresso.org", 
     in publications or presentations arising from this work. More details at
     http://www.quantum-espresso.org/quote

     Serial multi-threaded version, running on    1 processor cores
     Reading input from results/eos/Nb_eos_6.30.in
     0 MiB available memory on the printing compute node when the environment starts

     Reading input from results/eos/Nb_eos_6.30.in

     Program PWSCF v.7.2 starts on  6Mar2026 at 23:16: 6 

     This program is part of the open-source Quantum ESPRESSO suite
     for quantum simulation of materials; please cite
         "P. Giannozzi et al., J. Phys.:Condens. Matter 21 395502 (2009);
         "P. Giannozzi et al., J. Phys.:Condens. Matter 29 465901 (2017);
         "P. Giannozzi et al., J. Chem. Phys. 152 154105 (2020);
          URL http://www.quantum-espresso.org", 
     in publications or presentations arising from this work. More details at
     http://www.quantum-espresso.org/quote

     Serial multi-threaded version, running on    1 processor cores
     0 MiB available memory on the printing compute node when the environment starts


     Program PWSCF v.7.2 starts on  6Mar2026 at 23:16: 6 

     This program is part of the open-source Quantum ESPRESSO suite
     for quantum simulation of materials; please cite
         "P. Giannozzi et al., J. Phys.:Condens. Matter 21 395502 (2009);
         "P. Giannozzi et al., J. Phys.:Condens. Matter 29 465901 (2017);
         "P. Giannozzi et al., J. Chem. Phys. 152 154105 (2020);
          URL http://www.quantum-espresso.org", 
     in publications or presentations arising from this work. More details at
     http://www.quantum-espresso.org/quote

     Serial multi-threaded version, running on    1 processor cores
     0 MiB available memory on the printing compute node when the environment starts

     Reading input from results/eos/Nb_eos_6.30.in
     Reading input from results/eos/Nb_eos_6.30.in

     Program PWSCF v.7.2 starts on  6Mar2026 at 23:16: 6 

     This program is part of the open-source Quantum ESPRESSO suite
     for quantum simulation of materials; please cite
         "P. Giannozzi et al., J. Phys.:Condens. Matter 21 395502 (2009);
         "P. Giannozzi et al., J. Phys.:Condens. Matter 29 465901 (2017);
         "P. Giannozzi et al., J. Chem. Phys. 152 154105 (2020);
          URL http://www.quantum-espresso.org", 
     in publications or presentations arising from this work. More details at
     http://www.quantum-espresso.org/quote

     Serial multi-threaded version, running on    1 processor cores
     0 MiB available memory on the printing compute node when the environment starts


     Current dimensions of program PWSCF are:
     Max number of different atomic species (ntypx) = 10
     Max number of k-points (npk) =  40000
     Max angular momentum in pseudopotentials (lmaxx) =  4

     Current dimensions of program PWSCF are:
     Max number of different atomic species (ntypx) = 10
     Max number of k-points (npk) =  40000
     Max angular momentum in pseudopotentials (lmaxx) =  4

     Current dimensions of program PWSCF are:
     Max number of different atomic species (ntypx) = 10
     Max number of k-points (npk) =  40000
     Max angular momentum in pseudopotentials (lmaxx) =  4
     Reading input from results/eos/Nb_eos_6.30.in

     Current dimensions of program PWSCF are:
     Max number of different atomic species (ntypx) = 10
     Max number of k-points (npk) =  40000
     Max angular momentum in pseudopotentials (lmaxx) =  4

     Current dimensions of program PWSCF are:
     Max number of different atomic species (ntypx) = 10
     Max number of k-points (npk) =  40000
     Max angular momentum in pseudopotentials (lmaxx) =  4

     Current dimensions of program PWSCF are:
     Max number of different atomic species (ntypx) = 10
     Max number of k-points (npk) =  40000
     Max angular momentum in pseudopotentials (lmaxx) =  4


     G-vector sticks info
     --------------------
     sticks:   dense  smooth     PW     G-vecs:    dense   smooth      PW
     Sum        1255     623    201                27979     9909    1745

     Using Slab Decomposition



     bravais-lattice index     =            3
     lattice parameter (alat)  =       6.3000  a.u.
     unit-cell volume          =     125.0235 (a.u.)^3
     number of atoms/cell      =            1
     number of atomic types    =            1
     number of electrons       =        13.00
     number of Kohn-Sham states=           11
     kinetic-energy cutoff     =      70.0000  Ry
     charge density cutoff     =     560.0000  Ry
     scf convergence threshold =      1.0E-10
     mixing beta               =       0.4000
     number of iterations used =            8  plain     mixing
     Exchange-correlation= SLA  PW   PBE  PBE
                           (   1   4   3   4   0   0   0)

     celldm(1)=   6.300000  celldm(2)=   0.000000  celldm(3)=   0.000000
     celldm(4)=   0.000000  celldm(5)=   0.000000  celldm(6)=   0.000000

     crystal axes: (cart. coord. in units of alat)
               a(1) = (   0.500000   0.500000   0.500000 )  
               a(2) = (  -0.500000   0.500000   0.500000 )  
               a(3) = (  -0.500000  -0.500000   0.500000 )  

     reciprocal axes: (cart. coord. in units 2 pi/alat)
               b(1) = (  1.000000  0.000000  1.000000 )  
               b(2) = ( -1.000000  1.000000  0.000000 )  
               b(3) = (  0.000000 -1.000000  1.000000 )  


     PseudoPot. # 1 for Nb read from file:
     ./pseudo/nb_pbe_v1.uspp.F.UPF
     MD5 check sum: 573aab8a2fa660278ed4a62cd769473f
     Pseudo is Ultrasoft + core correction, Zval = 13.0
     Generated by new atomic code, or converted to UPF format
     Using radial grid of  887 points,  6 beta functions with: 
                l(1) =   0
                l(2) =   0
                l(3) =   1
                l(4) =   1
                l(5) =   2
                l(6) =   2
     Q(r) pseudized with  6 coefficients,  rinner =    1.000   1.000   1.000
                                                       1.000   1.000

     atomic species   valence    mass     pseudopotential
        Nb            13.00    92.90600     Nb( 1.00)

     48 Sym. Ops., with inversion, found



   Cartesian axes

     site n.     atom                  positions (alat units)
         1           Nb  tau(   1) = (   0.0000000   0.0000000   0.0000000  )

     number of k points=   145  Marzari-Vanderbilt smearing, width (Ry)=  0.0300

     Number of k-points >= 100: set verbosity='high' to print them.

     Dense  grid:    27979 G-vectors     FFT dimensions: (  45,  45,  45)

     Smooth grid:     9909 G-vectors     FFT dimensions: (  30,  30,  30)

     Estimated max dynamical RAM per process >     130.12 MB


     G-vector sticks info
     --------------------
     sticks:   dense  smooth     PW     G-vecs:    dense   smooth      PW
     Sum        1255     623    201                27979     9909    1745

     Using Slab Decomposition



     bravais-lattice index     =            3
     lattice parameter (alat)  =       6.3000  a.u.
     unit-cell volume          =     125.0235 (a.u.)^3
     number of atoms/cell      =            1
     number of atomic types    =            1
     number of electrons       =        13.00
     number of Kohn-Sham states=           11
     kinetic-energy cutoff     =      70.0000  Ry
     charge density cutoff     =     560.0000  Ry
     scf convergence threshold =      1.0E-10
     mixing beta               =       0.4000
     number of iterations used =            8  plain     mixing
     Exchange-correlation= SLA  PW   PBE  PBE
                           (   1   4   3   4   0   0   0)

     celldm(1)=   6.300000  celldm(2)=   0.000000  celldm(3)=   0.000000
     celldm(4)=   0.000000  celldm(5)=   0.000000  celldm(6)=   0.000000

     crystal axes: (cart. coord. in units of alat)
               a(1) = (   0.500000   0.500000   0.500000 )  
               a(2) = (  -0.500000   0.500000   0.500000 )  
               a(3) = (  -0.500000  -0.500000   0.500000 )  

     reciprocal axes: (cart. coord. in units 2 pi/alat)
               b(1) = (  1.000000  0.000000  1.000000 )  
               b(2) = ( -1.000000  1.000000  0.000000 )  
               b(3) = (  0.000000 -1.000000  1.000000 )  


     PseudoPot. # 1 for Nb read from file:
     ./pseudo/nb_pbe_v1.uspp.F.UPF
     MD5 check sum: 573aab8a2fa660278ed4a62cd769473f
     Pseudo is Ultrasoft + core correction, Zval = 13.0
     Generated by new atomic code, or converted to UPF format
     Using radial grid of  887 points,  6 beta functions with: 
                l(1) =   0
                l(2) =   0
                l(3) =   1
                l(4) =   1
                l(5) =   2
                l(6) =   2
     Q(r) pseudized with  6 coefficients,  rinner =    1.000   1.000   1.000
                                                       1.000   1.000

     atomic species   valence    mass     pseudopotential
        Nb            13.00    92.90600     Nb( 1.00)

     48 Sym. Ops., with inversion, found



   Cartesian axes

     site n.     atom                  positions (alat units)
         1           Nb  tau(   1) = (   0.0000000   0.0000000   0.0000000  )

     number of k points=   145  Marzari-Vanderbilt smearing, width (Ry)=  0.0300

     Number of k-points >= 100: set verbosity='high' to print them.

     Dense  grid:    27979 G-vectors     FFT dimensions: (  45,  45,  45)

     Smooth grid:     9909 G-vectors     FFT dimensions: (  30,  30,  30)

     Estimated max dynamical RAM per process >     130.12 MB


     G-vector sticks info
     --------------------
     sticks:   dense  smooth     PW     G-vecs:    dense   smooth      PW
     Sum        1255     623    201                27979     9909    1745

     Using Slab Decomposition



     bravais-lattice index     =            3
     lattice parameter (alat)  =       6.3000  a.u.
     unit-cell volume          =     125.0235 (a.u.)^3
     number of atoms/cell      =            1
     number of atomic types    =            1
     number of electrons       =        13.00
     number of Kohn-Sham states=           11
     kinetic-energy cutoff     =      70.0000  Ry
     charge density cutoff     =     560.0000  Ry
     scf convergence threshold =      1.0E-10
     mixing beta               =       0.4000
     number of iterations used =            8  plain     mixing
     Exchange-correlation= SLA  PW   PBE  PBE
                           (   1   4   3   4   0   0   0)

     celldm(1)=   6.300000  celldm(2)=   0.000000  celldm(3)=   0.000000
     celldm(4)=   0.000000  celldm(5)=   0.000000  celldm(6)=   0.000000

     crystal axes: (cart. coord. in units of alat)
               a(1) = (   0.500000   0.500000   0.500000 )  
               a(2) = (  -0.500000   0.500000   0.500000 )  
               a(3) = (  -0.500000  -0.500000   0.500000 )  

     reciprocal axes: (cart. coord. in units 2 pi/alat)
               b(1) = (  1.000000  0.000000  1.000000 )  
               b(2) = ( -1.000000  1.000000  0.000000 )  
               b(3) = (  0.000000 -1.000000  1.000000 )  


     PseudoPot. # 1 for Nb read from file:
     ./pseudo/nb_pbe_v1.uspp.F.UPF
     MD5 check sum: 573aab8a2fa660278ed4a62cd769473f
     Pseudo is Ultrasoft + core correction, Zval = 13.0
     Generated by new atomic code, or converted to UPF format
     Using radial grid of  887 points,  6 beta functions with: 
                l(1) =   0
                l(2) =   0
                l(3) =   1
                l(4) =   1
                l(5) =   2
                l(6) =   2
     Q(r) pseudized with  6 coefficients,  rinner =    1.000   1.000   1.000
                                                       1.000   1.000

     atomic species   valence    mass     pseudopotential
        Nb            13.00    92.90600     Nb( 1.00)

     48 Sym. Ops., with inversion, found



   Cartesian axes

     site n.     atom                  positions (alat units)
         1           Nb  tau(   1) = (   0.0000000   0.0000000   0.0000000  )

     number of k points=   145  Marzari-Vanderbilt smearing, width (Ry)=  0.0300

     Number of k-points >= 100: set verbosity='high' to print them.

     Dense  grid:    27979 G-vectors     FFT dimensions: (  45,  45,  45)

     Smooth grid:     9909 G-vectors     FFT dimensions: (  30,  30,  30)

     Estimated max dynamical RAM per process >     130.12 MB



     G-vector sticks info
     --------------------
     sticks:   dense  smooth     PW     G-vecs:    dense   smooth      PW
     Sum        1255     623    201                27979     9909    1745

     Using Slab Decomposition



     bravais-lattice index     =            3
     lattice parameter (alat)  =       6.3000  a.u.
     unit-cell volume          =     125.0235 (a.u.)^3
     number of atoms/cell      =            1
     number of atomic types    =            1
     number of electrons       =        13.00
     number of Kohn-Sham states=           11
     kinetic-energy cutoff     =      70.0000  Ry
     charge density cutoff     =     560.0000  Ry
     scf convergence threshold =      1.0E-10
     mixing beta               =       0.4000
     number of iterations used =            8  plain     mixing
     Exchange-correlation= SLA  PW   PBE  PBE
                           (   1   4   3   4   0   0   0)

     celldm(1)=   6.300000  celldm(2)=   0.000000  celldm(3)=   0.000000
     celldm(4)=   0.000000  celldm(5)=   0.000000  celldm(6)=   0.000000

     crystal axes: (cart. coord. in units of alat)
               a(1) = (   0.500000   0.500000   0.500000 )  
               a(2) = (  -0.500000   0.500000   0.500000 )  
               a(3) = (  -0.500000  -0.500000   0.500000 )  

     reciprocal axes: (cart. coord. in units 2 pi/alat)
               b(1) = (  1.000000  0.000000  1.000000 )  
               b(2) = ( -1.000000  1.000000  0.000000 )  
               b(3) = (  0.000000 -1.000000  1.000000 )  


     PseudoPot. # 1 for Nb read from file:
     ./pseudo/nb_pbe_v1.uspp.F.UPF
     MD5 check sum: 573aab8a2fa660278ed4a62cd769473f
     Pseudo is Ultrasoft + core correction, Zval = 13.0
     Generated by new atomic code, or converted to UPF format
     Using radial grid of  887 points,  6 beta functions with: 
                l(1) =   0
                l(2) =   0
                l(3) =   1
                l(4) =   1
                l(5) =   2
                l(6) =   2
     Q(r) pseudized with  6 coefficients,  rinner =    1.000   1.000   1.000
                                                       1.000   1.000

     atomic species   valence    mass     pseudopotential
        Nb            13.00    92.90600     Nb( 1.00)

     48 Sym. Ops., with inversion, found



   Cartesian axes

     site n.     atom                  positions (alat units)
         1           Nb  tau(   1) = (   0.0000000   0.0000000   0.0000000  )

     number of k points=   145  Marzari-Vanderbilt smearing, width (Ry)=  0.0300

     Number of k-points >= 100: set verbosity='high' to print them.

     Dense  grid:    27979 G-vectors     FFT dimensions: (  45,  45,  45)

     Smooth grid:     9909 G-vectors     FFT dimensions: (  30,  30,  30)

     Estimated max dynamical RAM per process >     130.12 MB

     G-vector sticks info
     --------------------
     sticks:   dense  smooth     PW     G-vecs:    dense   smooth      PW
     Sum        1255     623    201                27979     9909    1745

     Using Slab Decomposition



     bravais-lattice index     =            3
     lattice parameter (alat)  =       6.3000  a.u.
     unit-cell volume          =     125.0235 (a.u.)^3
     number of atoms/cell      =            1
     number of atomic types    =            1
     number of electrons       =        13.00
     number of Kohn-Sham states=           11
     kinetic-energy cutoff     =      70.0000  Ry
     charge density cutoff     =     560.0000  Ry
     scf convergence threshold =      1.0E-10
     mixing beta               =       0.4000
     number of iterations used =            8  plain     mixing
     Exchange-correlation= SLA  PW   PBE  PBE
                           (   1   4   3   4   0   0   0)

     celldm(1)=   6.300000  celldm(2)=   0.000000  celldm(3)=   0.000000
     celldm(4)=   0.000000  celldm(5)=   0.000000  celldm(6)=   0.000000

     crystal axes: (cart. coord. in units of alat)
               a(1) = (   0.500000   0.500000   0.500000 )  
               a(2) = (  -0.500000   0.500000   0.500000 )  
               a(3) = (  -0.500000  -0.500000   0.500000 )  

     reciprocal axes: (cart. coord. in units 2 pi/alat)
               b(1) = (  1.000000  0.000000  1.000000 )  
               b(2) = ( -1.000000  1.000000  0.000000 )  
               b(3) = (  0.000000 -1.000000  1.000000 )  


     PseudoPot. # 1 for Nb read from file:
     ./pseudo/nb_pbe_v1.uspp.F.UPF
     MD5 check sum: 573aab8a2fa660278ed4a62cd769473f
     Pseudo is Ultrasoft + core correction, Zval = 13.0
     Generated by new atomic code, or converted to UPF format
     Using radial grid of  887 points,  6 beta functions with: 
                l(1) =   0
                l(2) =   0
                l(3) =   1
                l(4) =   1
                l(5) =   2
                l(6) =   2
     Q(r) pseudized with  6 coefficients,  rinner =    1.000   1.000   1.000
                                                       1.000   1.000

     atomic species   valence    mass     pseudopotential
        Nb            13.00    92.90600     Nb( 1.00)

     48 Sym. Ops., with inversion, found



   Cartesian axes

     site n.     atom                  positions (alat units)
         1           Nb  tau(   1) = (   0.0000000   0.0000000   0.0000000  )

     number of k points=   145  Marzari-Vanderbilt smearing, width (Ry)=  0.0300

     Number of k-points >= 100: set verbosity='high' to print them.

     Dense  grid:    27979 G-vectors     FFT dimensions: (  45,  45,  45)

     Smooth grid:     9909 G-vectors     FFT dimensions: (  30,  30,  30)

     Estimated max dynamical RAM per process >     130.12 MB


     G-vector sticks info
     --------------------
     sticks:   dense  smooth     PW     G-vecs:    dense   smooth      PW
     Sum        1255     623    201                27979     9909    1745

     Using Slab Decomposition



     bravais-lattice index     =            3
     lattice parameter (alat)  =       6.3000  a.u.
     unit-cell volume          =     125.0235 (a.u.)^3
     number of atoms/cell      =            1
     number of atomic types    =            1
     number of electrons       =        13.00
     number of Kohn-Sham states=           11
     kinetic-energy cutoff     =      70.0000  Ry
     charge density cutoff     =     560.0000  Ry
     scf convergence threshold =      1.0E-10
     mixing beta               =       0.4000
     number of iterations used =            8  plain     mixing
     Exchange-correlation= SLA  PW   PBE  PBE
                           (   1   4   3   4   0   0   0)

     celldm(1)=   6.300000  celldm(2)=   0.000000  celldm(3)=   0.000000
     celldm(4)=   0.000000  celldm(5)=   0.000000  celldm(6)=   0.000000

     crystal axes: (cart. coord. in units of alat)
               a(1) = (   0.500000   0.500000   0.500000 )  
               a(2) = (  -0.500000   0.500000   0.500000 )  
               a(3) = (  -0.500000  -0.500000   0.500000 )  

     reciprocal axes: (cart. coord. in units 2 pi/alat)
               b(1) = (  1.000000  0.000000  1.000000 )  
               b(2) = ( -1.000000  1.000000  0.000000 )  
               b(3) = (  0.000000 -1.000000  1.000000 )  


     PseudoPot. # 1 for Nb read from file:
     ./pseudo/nb_pbe_v1.uspp.F.UPF
     MD5 check sum: 573aab8a2fa660278ed4a62cd769473f
     Pseudo is Ultrasoft + core correction, Zval = 13.0
     Generated by new atomic code, or converted to UPF format
     Using radial grid of  887 points,  6 beta functions with: 
                l(1) =   0
                l(2) =   0
                l(3) =   1
                l(4) =   1
                l(5) =   2
                l(6) =   2
     Q(r) pseudized with  6 coefficients,  rinner =    1.000   1.000   1.000
                                                       1.000   1.000

     atomic species   valence    mass     pseudopotential
        Nb            13.00    92.90600     Nb( 1.00)

     48 Sym. Ops., with inversion, found



   Cartesian axes

     site n.     atom                  positions (alat units)
         1           Nb  tau(   1) = (   0.0000000   0.0000000   0.0000000  )

     number of k points=   145  Marzari-Vanderbilt smearing, width (Ry)=  0.0300

     Number of k-points >= 100: set verbosity='high' to print them.

     Dense  grid:    27979 G-vectors     FFT dimensions: (  45,  45,  45)

     Smooth grid:     9909 G-vectors     FFT dimensions: (  30,  30,  30)

     Estimated max dynamical RAM per process >     130.12 MB

     Initial potential from superposition of free atoms

     Initial potential from superposition of free atoms

     starting charge      12.9973, renormalised to      13.0000

     starting charge      12.9973, renormalised to      13.0000

     Initial potential from superposition of free atoms

     starting charge      12.9973, renormalised to      13.0000

     Initial potential from superposition of free atoms

     starting charge      12.9973, renormalised to      13.0000

     Initial potential from superposition of free atoms

     starting charge      12.9973, renormalised to      13.0000

     Initial potential from superposition of free atoms

     starting charge      12.9973, renormalised to      13.0000
     Starting wfcs are   13 randomized atomic wfcs
     Starting wfcs are   13 randomized atomic wfcs
     Starting wfcs are   13 randomized atomic wfcs
     Starting wfcs are   13 randomized atomic wfcs
     Starting wfcs are   13 randomized atomic wfcs
     Starting wfcs are   13 randomized atomic wfcs

     total cpu time spent up to now is        1.1 secs

     Self-consistent Calculation

     iteration #  1     ecut=    70.00 Ry     beta= 0.40
     Davidson diagonalization with overlap

     total cpu time spent up to now is        1.1 secs

     Self-consistent Calculation

     iteration #  1     ecut=    70.00 Ry     beta= 0.40
     Davidson diagonalization with overlap

     total cpu time spent up to now is        1.1 secs

     Self-consistent Calculation

     iteration #  1     ecut=    70.00 Ry     beta= 0.40
     Davidson diagonalization with overlap

     total cpu time spent up to now is        1.1 secs

     Self-consistent Calculation

     iteration #  1     ecut=    70.00 Ry     beta= 0.40
     Davidson diagonalization with overlap

     total cpu time spent up to now is        1.2 secs

     Self-consistent Calculation

     iteration #  1     ecut=    70.00 Ry     beta= 0.40
     Davidson diagonalization with overlap

     total cpu time spent up to now is        1.3 secs

     Self-consistent Calculation

     iteration #  1     ecut=    70.00 Ry     beta= 0.40
     Davidson diagonalization with overlap
     ethr =  1.00E-02,  avg # of iterations =  3.4
     ethr =  1.00E-02,  avg # of iterations =  3.4
     ethr =  1.00E-02,  avg # of iterations =  3.4
     ethr =  1.00E-02,  avg # of iterations =  3.4
     ethr =  1.00E-02,  avg # of iterations =  3.4
     ethr =  1.00E-02,  avg # of iterations =  3.4

     Threshold (ethr) on eigenvalues was too large:
     Diagonalizing with lowered threshold

     Davidson diagonalization with overlap

     Threshold (ethr) on eigenvalues was too large:
     Diagonalizing with lowered threshold

     Davidson diagonalization with overlap

     Threshold (ethr) on eigenvalues was too large:
     Diagonalizing with lowered threshold

     Davidson diagonalization with overlap

     Threshold (ethr) on eigenvalues was too large:
     Diagonalizing with lowered threshold

     Davidson diagonalization with overlap

     Threshold (ethr) on eigenvalues was too large:
     Diagonalizing with lowered threshold

     Davidson diagonalization with overlap

     Threshold (ethr) on eigenvalues was too large:
     Diagonalizing with lowered threshold

     Davidson diagonalization with overlap
     ethr =  7.06E-04,  avg # of iterations =  1.1
     ethr =  7.06E-04,  avg # of iterations =  1.1
     ethr =  7.06E-04,  avg # of iterations =  1.1
     ethr =  7.06E-04,  avg # of iterations =  1.1
     ethr =  7.06E-04,  avg # of iterations =  1.1
     ethr =  7.06E-04,  avg # of iterations =  1.1

     total cpu time spent up to now is        5.0 secs

     total energy              =    -117.92710141 Ry
     estimated scf accuracy    <       0.09461196 Ry

     iteration #  2     ecut=    70.00 Ry     beta= 0.40
     Davidson diagonalization with overlap

     total cpu time spent up to now is        5.1 secs

     total energy              =    -117.92710141 Ry
     estimated scf accuracy    <       0.09461196 Ry

     iteration #  2     ecut=    70.00 Ry     beta= 0.40
     Davidson diagonalization with overlap

     total cpu time spent up to now is        5.2 secs

     total energy              =    -117.92710141 Ry
     estimated scf accuracy    <       0.09461196 Ry

     iteration #  2     ecut=    70.00 Ry     beta= 0.40
     Davidson diagonalization with overlap

     total cpu time spent up to now is        5.2 secs

     total energy              =    -117.92710141 Ry
     estimated scf accuracy    <       0.09461196 Ry

     iteration #  2     ecut=    70.00 Ry     beta= 0.40
     Davidson diagonalization with overlap

     total cpu time spent up to now is        5.4 secs

     total energy              =    -117.92710141 Ry
     estimated scf accuracy    <       0.09461196 Ry

     iteration #  2     ecut=    70.00 Ry     beta= 0.40
     Davidson diagonalization with overlap

     total cpu time spent up to now is        5.5 secs

     total energy              =    -117.92710141 Ry
     estimated scf accuracy    <       0.09461196 Ry

     iteration #  2     ecut=    70.00 Ry     beta= 0.40
     Davidson diagonalization with overlap
     ethr =  7.28E-04,  avg # of iterations =  1.9
     ethr =  7.28E-04,  avg # of iterations =  1.9
     ethr =  7.28E-04,  avg # of iterations =  1.9
     ethr =  7.28E-04,  avg # of iterations =  1.9
     ethr =  7.28E-04,  avg # of iterations =  1.9

     total cpu time spent up to now is        6.9 secs

     total energy              =    -117.93053997 Ry
     estimated scf accuracy    <       0.01179472 Ry

     iteration #  3     ecut=    70.00 Ry     beta= 0.40
     Davidson diagonalization with overlap
     ethr =  7.28E-04,  avg # of iterations =  1.9

     total cpu time spent up to now is        7.1 secs

     total energy              =    -117.93053997 Ry
     estimated scf accuracy    <       0.01179472 Ry

     iteration #  3     ecut=    70.00 Ry     beta= 0.40
     Davidson diagonalization with overlap

     total cpu time spent up to now is        7.2 secs

     total energy              =    -117.93053997 Ry
     estimated scf accuracy    <       0.01179472 Ry

     iteration #  3     ecut=    70.00 Ry     beta= 0.40
     Davidson diagonalization with overlap

     total cpu time spent up to now is        7.2 secs

     total energy              =    -117.93053997 Ry
     estimated scf accuracy    <       0.01179472 Ry

     iteration #  3     ecut=    70.00 Ry     beta= 0.40
     Davidson diagonalization with overlap

     total cpu time spent up to now is        7.3 secs

     total energy              =    -117.93053997 Ry
     estimated scf accuracy    <       0.01179472 Ry

     iteration #  3     ecut=    70.00 Ry     beta= 0.40
     Davidson diagonalization with overlap

     total cpu time spent up to now is        7.4 secs

     total energy              =    -117.93053997 Ry
     estimated scf accuracy    <       0.01179472 Ry

     iteration #  3     ecut=    70.00 Ry     beta= 0.40
     Davidson diagonalization with overlap
     ethr =  9.07E-05,  avg # of iterations =  2.6
     ethr =  9.07E-05,  avg # of iterations =  2.6
     ethr =  9.07E-05,  avg # of iterations =  2.6
     ethr =  9.07E-05,  avg # of iterations =  2.6
     ethr =  9.07E-05,  avg # of iterations =  2.6

     total cpu time spent up to now is        9.0 secs

     total energy              =    -117.93258959 Ry
     estimated scf accuracy    <       0.00068747 Ry

     iteration #  4     ecut=    70.00 Ry     beta= 0.40
     Davidson diagonalization with overlap
     ethr =  9.07E-05,  avg # of iterations =  2.6

     total cpu time spent up to now is        9.3 secs

     total energy              =    -117.93258959 Ry
     estimated scf accuracy    <       0.00068747 Ry

     iteration #  4     ecut=    70.00 Ry     beta= 0.40
     Davidson diagonalization with overlap

     total cpu time spent up to now is        9.3 secs

     total energy              =    -117.93258959 Ry
     estimated scf accuracy    <       0.00068747 Ry

     iteration #  4     ecut=    70.00 Ry     beta= 0.40
     Davidson diagonalization with overlap

     total cpu time spent up to now is        9.4 secs

     total energy              =    -117.93258959 Ry
     estimated scf accuracy    <       0.00068747 Ry

     iteration #  4     ecut=    70.00 Ry     beta= 0.40
     Davidson diagonalization with overlap

     total cpu time spent up to now is        9.4 secs

     total energy              =    -117.93258959 Ry
     estimated scf accuracy    <       0.00068747 Ry

     iteration #  4     ecut=    70.00 Ry     beta= 0.40
     Davidson diagonalization with overlap

     total cpu time spent up to now is        9.5 secs

     total energy              =    -117.93258959 Ry
     estimated scf accuracy    <       0.00068747 Ry

     iteration #  4     ecut=    70.00 Ry     beta= 0.40
     Davidson diagonalization with overlap
     ethr =  5.29E-06,  avg # of iterations =  3.0
     ethr =  5.29E-06,  avg # of iterations =  3.0
     ethr =  5.29E-06,  avg # of iterations =  3.0
     ethr =  5.29E-06,  avg # of iterations =  3.0
     ethr =  5.29E-06,  avg # of iterations =  3.0

     total cpu time spent up to now is       11.3 secs

     total energy              =    -117.93264317 Ry
     estimated scf accuracy    <       0.00007683 Ry

     iteration #  5     ecut=    70.00 Ry     beta= 0.40
     Davidson diagonalization with overlap
     ethr =  5.29E-06,  avg # of iterations =  3.0

     total cpu time spent up to now is       11.5 secs

     total energy              =    -117.93264317 Ry
     estimated scf accuracy    <       0.00007683 Ry

     iteration #  5     ecut=    70.00 Ry     beta= 0.40
     Davidson diagonalization with overlap

     total cpu time spent up to now is       11.5 secs

     total energy              =    -117.93264317 Ry
     estimated scf accuracy    <       0.00007683 Ry

     iteration #  5     ecut=    70.00 Ry     beta= 0.40
     Davidson diagonalization with overlap

     total cpu time spent up to now is       11.5 secs

     total energy              =    -117.93264317 Ry
     estimated scf accuracy    <       0.00007683 Ry

     iteration #  5     ecut=    70.00 Ry     beta= 0.40
     Davidson diagonalization with overlap

     total cpu time spent up to now is       11.7 secs

     total energy              =    -117.93264317 Ry
     estimated scf accuracy    <       0.00007683 Ry

     iteration #  5     ecut=    70.00 Ry     beta= 0.40
     Davidson diagonalization with overlap

     total cpu time spent up to now is       11.7 secs

     total energy              =    -117.93264317 Ry
     estimated scf accuracy    <       0.00007683 Ry

     iteration #  5     ecut=    70.00 Ry     beta= 0.40
     Davidson diagonalization with overlap
     ethr =  5.91E-07,  avg # of iterations =  2.4

     total cpu time spent up to now is       13.3 secs

     total energy              =    -117.93266294 Ry
     estimated scf accuracy    <       0.00001840 Ry

     iteration #  6     ecut=    70.00 Ry     beta= 0.40
     Davidson diagonalization with overlap
     ethr =  5.91E-07,  avg # of iterations =  2.4
     ethr =  5.91E-07,  avg # of iterations =  2.4
     ethr =  5.91E-07,  avg # of iterations =  2.4
     ethr =  5.91E-07,  avg # of iterations =  2.4
     ethr =  5.91E-07,  avg # of iterations =  2.4

     total cpu time spent up to now is       13.8 secs

     total energy              =    -117.93266294 Ry
     estimated scf accuracy    <       0.00001840 Ry

     iteration #  6     ecut=    70.00 Ry     beta= 0.40
     Davidson diagonalization with overlap

     total cpu time spent up to now is       13.8 secs

     total energy              =    -117.93266294 Ry
     estimated scf accuracy    <       0.00001840 Ry

     iteration #  6     ecut=    70.00 Ry     beta= 0.40
     Davidson diagonalization with overlap

     total cpu time spent up to now is       13.9 secs

     total energy              =    -117.93266294 Ry
     estimated scf accuracy    <       0.00001840 Ry

     iteration #  6     ecut=    70.00 Ry     beta= 0.40
     Davidson diagonalization with overlap

     total cpu time spent up to now is       13.9 secs

     total energy              =    -117.93266294 Ry
     estimated scf accuracy    <       0.00001840 Ry

     iteration #  6     ecut=    70.00 Ry     beta= 0.40
     Davidson diagonalization with overlap

     total cpu time spent up to now is       13.9 secs

     total energy              =    -117.93266294 Ry
     estimated scf accuracy    <       0.00001840 Ry

     iteration #  6     ecut=    70.00 Ry     beta= 0.40
     Davidson diagonalization with overlap
     ethr =  1.42E-07,  avg # of iterations =  2.0

     total cpu time spent up to now is       15.3 secs

     total energy              =    -117.93266569 Ry
     estimated scf accuracy    <       0.00000002 Ry

     iteration #  7     ecut=    70.00 Ry     beta= 0.40
     Davidson diagonalization with overlap
     ethr =  1.42E-07,  avg # of iterations =  2.0
     ethr =  1.42E-07,  avg # of iterations =  2.0
     ethr =  1.42E-07,  avg # of iterations =  2.0
     ethr =  1.42E-07,  avg # of iterations =  2.0
     ethr =  1.42E-07,  avg # of iterations =  2.0

     total cpu time spent up to now is       15.9 secs

     total energy              =    -117.93266569 Ry
     estimated scf accuracy    <       0.00000002 Ry

     iteration #  7     ecut=    70.00 Ry     beta= 0.40
     Davidson diagonalization with overlap

     total cpu time spent up to now is       15.9 secs

     total energy              =    -117.93266569 Ry
     estimated scf accuracy    <       0.00000002 Ry

     iteration #  7     ecut=    70.00 Ry     beta= 0.40
     Davidson diagonalization with overlap

     total cpu time spent up to now is       15.9 secs

     total energy              =    -117.93266569 Ry
     estimated scf accuracy    <       0.00000002 Ry

     iteration #  7     ecut=    70.00 Ry     beta= 0.40
     Davidson diagonalization with overlap

     total cpu time spent up to now is       15.9 secs

     total energy              =    -117.93266569 Ry
     estimated scf accuracy    <       0.00000002 Ry

     iteration #  7     ecut=    70.00 Ry     beta= 0.40
     Davidson diagonalization with overlap

     total cpu time spent up to now is       16.1 secs

     total energy              =    -117.93266569 Ry
     estimated scf accuracy    <       0.00000002 Ry

     iteration #  7     ecut=    70.00 Ry     beta= 0.40
     Davidson diagonalization with overlap
     ethr =  1.73E-10,  avg # of iterations =  3.3

     total cpu time spent up to now is       17.7 secs

     total energy              =    -117.93266572 Ry
     estimated scf accuracy    <       0.00000002 Ry

     iteration #  8     ecut=    70.00 Ry     beta= 0.40
     Davidson diagonalization with overlap
     ethr =  1.73E-10,  avg # of iterations =  3.3
     ethr =  1.73E-10,  avg # of iterations =  3.3
     ethr =  1.73E-10,  avg # of iterations =  3.3
     ethr =  1.73E-10,  avg # of iterations =  3.3

     total cpu time spent up to now is       18.1 secs

     total energy              =    -117.93266572 Ry
     estimated scf accuracy    <       0.00000002 Ry

     iteration #  8     ecut=    70.00 Ry     beta= 0.40
     Davidson diagonalization with overlap

     total cpu time spent up to now is       18.2 secs

     total energy              =    -117.93266572 Ry
     estimated scf accuracy    <       0.00000002 Ry

     iteration #  8     ecut=    70.00 Ry     beta= 0.40
     Davidson diagonalization with overlap

     total cpu time spent up to now is       18.3 secs

     total energy              =    -117.93266572 Ry
     estimated scf accuracy    <       0.00000002 Ry

     iteration #  8     ecut=    70.00 Ry     beta= 0.40
     Davidson diagonalization with overlap

     total cpu time spent up to now is       18.4 secs

     total energy              =    -117.93266572 Ry
     estimated scf accuracy    <       0.00000002 Ry

     iteration #  8     ecut=    70.00 Ry     beta= 0.40
     Davidson diagonalization with overlap
     ethr =  1.73E-10,  avg # of iterations =  3.3

     total cpu time spent up to now is       18.9 secs

     total energy              =    -117.93266572 Ry
     estimated scf accuracy    <       0.00000002 Ry

     iteration #  8     ecut=    70.00 Ry     beta= 0.40
     Davidson diagonalization with overlap
     ethr =  1.43E-10,  avg # of iterations =  1.0

     total cpu time spent up to now is       19.4 secs

     total energy              =    -117.93266572 Ry
     estimated scf accuracy    <          1.6E-09 Ry

     iteration #  9     ecut=    70.00 Ry     beta= 0.40
     Davidson diagonalization with overlap
     ethr =  1.43E-10,  avg # of iterations =  1.0
     ethr =  1.43E-10,  avg # of iterations =  1.0
     ethr =  1.43E-10,  avg # of iterations =  1.0
     ethr =  1.43E-10,  avg # of iterations =  1.0

     total cpu time spent up to now is       20.0 secs

     total energy              =    -117.93266572 Ry
     estimated scf accuracy    <          1.6E-09 Ry

     iteration #  9     ecut=    70.00 Ry     beta= 0.40
     Davidson diagonalization with overlap

     total cpu time spent up to now is       20.0 secs

     total energy              =    -117.93266572 Ry
     estimated scf accuracy    <          1.6E-09 Ry

     iteration #  9     ecut=    70.00 Ry     beta= 0.40
     Davidson diagonalization with overlap

     total cpu time spent up to now is       20.1 secs

     total energy              =    -117.93266572 Ry
     estimated scf accuracy    <          1.6E-09 Ry

     iteration #  9     ecut=    70.00 Ry     beta= 0.40
     Davidson diagonalization with overlap

     total cpu time spent up to now is       20.2 secs

     total energy              =    -117.93266572 Ry
     estimated scf accuracy    <          1.6E-09 Ry

     iteration #  9     ecut=    70.00 Ry     beta= 0.40
     Davidson diagonalization with overlap
     ethr =  1.43E-10,  avg # of iterations =  1.0

     total cpu time spent up to now is       20.7 secs

     total energy              =    -117.93266572 Ry
     estimated scf accuracy    <          1.6E-09 Ry

     iteration #  9     ecut=    70.00 Ry     beta= 0.40
     Davidson diagonalization with overlap
     ethr =  1.24E-11,  avg # of iterations =  2.0

     total cpu time spent up to now is       21.6 secs

     total energy              =    -117.93266572 Ry
     estimated scf accuracy    <          5.7E-10 Ry

     iteration # 10     ecut=    70.00 Ry     beta= 0.40
     Davidson diagonalization with overlap
     ethr =  1.24E-11,  avg # of iterations =  2.0
     ethr =  1.24E-11,  avg # of iterations =  2.0
     ethr =  1.24E-11,  avg # of iterations =  2.0

     total cpu time spent up to now is       22.0 secs

     total energy              =    -117.93266572 Ry
     estimated scf accuracy    <          5.7E-10 Ry

     iteration # 10     ecut=    70.00 Ry     beta= 0.40
     Davidson diagonalization with overlap
     ethr =  1.24E-11,  avg # of iterations =  2.0

     total cpu time spent up to now is       22.1 secs

     total energy              =    -117.93266572 Ry
     estimated scf accuracy    <          5.7E-10 Ry

     iteration # 10     ecut=    70.00 Ry     beta= 0.40
     Davidson diagonalization with overlap

     total cpu time spent up to now is       22.2 secs

     total energy              =    -117.93266572 Ry
     estimated scf accuracy    <          5.7E-10 Ry

     iteration # 10     ecut=    70.00 Ry     beta= 0.40
     Davidson diagonalization with overlap
     ethr =  1.24E-11,  avg # of iterations =  2.0

     total cpu time spent up to now is       22.5 secs

     total energy              =    -117.93266572 Ry
     estimated scf accuracy    <          5.7E-10 Ry

     iteration # 10     ecut=    70.00 Ry     beta= 0.40
     Davidson diagonalization with overlap

     total cpu time spent up to now is       22.8 secs

     total energy              =    -117.93266572 Ry
     estimated scf accuracy    <          5.7E-10 Ry

     iteration # 10     ecut=    70.00 Ry     beta= 0.40
     Davidson diagonalization with overlap
     ethr =  4.41E-12,  avg # of iterations =  1.0
     ethr =  4.41E-12,  avg # of iterations =  1.0
     ethr =  4.41E-12,  avg # of iterations =  1.0

     total cpu time spent up to now is       23.7 secs

     total energy              =    -117.93266572 Ry
     estimated scf accuracy    <          1.1E-10 Ry

     iteration # 11     ecut=    70.00 Ry     beta= 0.40
     Davidson diagonalization with overlap
     ethr =  4.41E-12,  avg # of iterations =  1.0

     total cpu time spent up to now is       23.7 secs

     total energy              =    -117.93266572 Ry
     estimated scf accuracy    <          1.1E-10 Ry

     iteration # 11     ecut=    70.00 Ry     beta= 0.40
     Davidson diagonalization with overlap

     total cpu time spent up to now is       23.9 secs

     total energy              =    -117.93266572 Ry
     estimated scf accuracy    <          1.1E-10 Ry

     iteration # 11     ecut=    70.00 Ry     beta= 0.40
     Davidson diagonalization with overlap
     ethr =  4.41E-12,  avg # of iterations =  1.0

     total cpu time spent up to now is       24.1 secs

     total energy              =    -117.93266572 Ry
     estimated scf accuracy    <          1.1E-10 Ry

     iteration # 11     ecut=    70.00 Ry     beta= 0.40
     Davidson diagonalization with overlap
     ethr =  4.41E-12,  avg # of iterations =  1.0

     total cpu time spent up to now is       24.4 secs

     total energy              =    -117.93266572 Ry
     estimated scf accuracy    <          1.1E-10 Ry

     iteration # 11     ecut=    70.00 Ry     beta= 0.40
     Davidson diagonalization with overlap

     total cpu time spent up to now is       24.6 secs

     total energy              =    -117.93266572 Ry
     estimated scf accuracy    <          1.1E-10 Ry

     iteration # 11     ecut=    70.00 Ry     beta= 0.40
     Davidson diagonalization with overlap
     ethr =  8.52E-13,  avg # of iterations =  2.0
     ethr =  8.52E-13,  avg # of iterations =  2.0
     ethr =  8.52E-13,  avg # of iterations =  2.0

     total cpu time spent up to now is       25.8 secs

     End of self-consistent calculation

     Number of k-points >= 100: set verbosity='high' to print the bands.

     the Fermi energy is    17.4194 ev

!    total energy              =    -117.93266572 Ry
     estimated scf accuracy    <          2.7E-13 Ry
     smearing contrib. (-TS)   =       0.00002592 Ry
     internal energy E=F+TS    =    -117.93269164 Ry

     The total energy is F=E-TS. E is the sum of the following terms:
     one-electron contribution =     -17.16909185 Ry
     hartree contribution      =      15.27414757 Ry
     xc contribution           =     -18.41386594 Ry
     ewald contribution        =     -97.62388142 Ry

     convergence has been achieved in  11 iterations

     Writing all to output data dir ./tmp/Nb_eos_6.30.save/
     ethr =  8.52E-13,  avg # of iterations =  2.0

     total cpu time spent up to now is       25.9 secs

     End of self-consistent calculation

     Number of k-points >= 100: set verbosity='high' to print the bands.

     the Fermi energy is    17.4194 ev

!    total energy              =    -117.93266572 Ry
     estimated scf accuracy    <          2.7E-13 Ry
     smearing contrib. (-TS)   =       0.00002592 Ry
     internal energy E=F+TS    =    -117.93269164 Ry

     The total energy is F=E-TS. E is the sum of the following terms:
     one-electron contribution =     -17.16909185 Ry
     hartree contribution      =      15.27414757 Ry
     xc contribution           =     -18.41386594 Ry
     ewald contribution        =     -97.62388142 Ry

     convergence has been achieved in  11 iterations

     Writing all to output data dir ./tmp/Nb_eos_6.30.save/
     ethr =  8.52E-13,  avg # of iterations =  2.0

     init_run     :      1.16s CPU      1.21s WALL (       1 calls)
     electrons    :     23.51s CPU     24.65s WALL (       1 calls)

     Called by init_run:
     wfcinit      :      0.94s CPU      0.98s WALL (       1 calls)
     potinit      :      0.02s CPU      0.03s WALL (       1 calls)
     hinit0       :      0.15s CPU      0.16s WALL (       1 calls)

     Called by electrons:
     c_bands      :     18.87s CPU     19.73s WALL (      12 calls)
     sum_band     :      4.19s CPU      4.37s WALL (      12 calls)
     v_of_rho     :      0.21s CPU      0.24s WALL (      12 calls)
     newd         :      0.25s CPU      0.32s WALL (      12 calls)
     mix_rho      :      0.02s CPU      0.02s WALL (      12 calls)

     Called by c_bands:
     init_us_2    :      0.49s CPU      0.51s WALL (    3625 calls)
     init_us_2:cp :      0.49s CPU      0.50s WALL (    3625 calls)
     cegterg      :     18.13s CPU     18.95s WALL (    1740 calls)

     Called by *egterg:
     cdiaghg      :      0.33s CPU      0.34s WALL (    5330 calls)
     h_psi        :     16.68s CPU     17.38s WALL (    5620 calls)
     s_psi        :      0.31s CPU      0.32s WALL (    5620 calls)
     g_psi        :      0.05s CPU      0.05s WALL (    3735 calls)

     Called by h_psi:
     h_psi:calbec :      0.36s CPU      0.38s WALL (    5620 calls)
     vloc_psi     :     15.97s CPU     16.63s WALL (    5620 calls)
     add_vuspsi   :      0.31s CPU      0.32s WALL (    5620 calls)

     General routines
     calbec       :      0.49s CPU      0.51s WALL (    7360 calls)
     fft          :      0.11s CPU      0.12s WALL (     155 calls)
     ffts         :      0.01s CPU      0.01s WALL (      24 calls)
     fftw         :     16.26s CPU     16.88s WALL (  112062 calls)
     interpolate  :      0.02s CPU      0.02s WALL (      12 calls)


     PWSCF        :     24.73s CPU     25.98s WALL


   This run was terminated on:  23:16:32   6Mar2026            

=------------------------------------------------------------------------------=
   JOB DONE.
=------------------------------------------------------------------------------=
Note: The following floating-point exceptions are signalling: IEEE_INVALID_FLAG IEEE_DIVIDE_BY_ZERO IEEE_UNDERFLOW_FLAG

     init_run     :      1.02s CPU      1.07s WALL (       1 calls)
     electrons    :     23.54s CPU     24.71s WALL (       1 calls)

     Called by init_run:
     wfcinit      :      0.79s CPU      0.82s WALL (       1 calls)
     potinit      :      0.02s CPU      0.02s WALL (       1 calls)
     hinit0       :      0.17s CPU      0.17s WALL (       1 calls)

     Called by electrons:
     c_bands      :     18.79s CPU     19.69s WALL (      12 calls)
     sum_band     :      4.29s CPU      4.48s WALL (      12 calls)
     v_of_rho     :      0.22s CPU      0.23s WALL (      12 calls)
     newd         :      0.25s CPU      0.30s WALL (      12 calls)
     mix_rho      :      0.02s CPU      0.02s WALL (      12 calls)

     Called by c_bands:
     init_us_2    :      0.49s CPU      0.51s WALL (    3625 calls)
     init_us_2:cp :      0.49s CPU      0.51s WALL (    3625 calls)
     cegterg      :     18.04s CPU     18.90s WALL (    1740 calls)

     Called by *egterg:
     cdiaghg      :      0.33s CPU      0.34s WALL (    5330 calls)
     h_psi        :     16.49s CPU     17.21s WALL (    5620 calls)
     s_psi        :      0.31s CPU      0.32s WALL (    5620 calls)
     g_psi        :      0.05s CPU      0.05s WALL (    3735 calls)

     Called by h_psi:
     h_psi:calbec :      0.35s CPU      0.37s WALL (    5620 calls)
     vloc_psi     :     15.79s CPU     16.47s WALL (    5620 calls)
     add_vuspsi   :      0.31s CPU      0.32s WALL (    5620 calls)

     General routines
     calbec       :      0.49s CPU      0.51s WALL (    7360 calls)
     fft          :      0.11s CPU      0.12s WALL (     155 calls)
     ffts         :      0.01s CPU      0.01s WALL (      24 calls)
     fftw         :     16.19s CPU     16.85s WALL (  112062 calls)
     interpolate  :      0.01s CPU      0.02s WALL (      12 calls)


     PWSCF        :     24.63s CPU     25.99s WALL


   This run was terminated on:  23:16:32   6Mar2026            

=------------------------------------------------------------------------------=
   JOB DONE.
=------------------------------------------------------------------------------=
Note: The following floating-point exceptions are signalling: IEEE_INVALID_FLAG IEEE_DIVIDE_BY_ZERO IEEE_UNDERFLOW_FLAG

     total cpu time spent up to now is       26.2 secs

     End of self-consistent calculation

     Number of k-points >= 100: set verbosity='high' to print the bands.

     the Fermi energy is    17.4194 ev

!    total energy              =    -117.93266572 Ry
     estimated scf accuracy    <          2.7E-13 Ry
     smearing contrib. (-TS)   =       0.00002592 Ry
     internal energy E=F+TS    =    -117.93269164 Ry

     The total energy is F=E-TS. E is the sum of the following terms:
     one-electron contribution =     -17.16909185 Ry
     hartree contribution      =      15.27414757 Ry
     xc contribution           =     -18.41386594 Ry
     ewald contribution        =     -97.62388142 Ry

     convergence has been achieved in  11 iterations

     Writing all to output data dir ./tmp/Nb_eos_6.30.save/

     init_run     :      1.05s CPU      1.08s WALL (       1 calls)
     electrons    :     24.03s CPU     25.02s WALL (       1 calls)

     Called by init_run:
     wfcinit      :      0.83s CPU      0.85s WALL (       1 calls)
     potinit      :      0.02s CPU      0.02s WALL (       1 calls)
     hinit0       :      0.15s CPU      0.15s WALL (       1 calls)

     Called by electrons:
     c_bands      :     19.23s CPU     19.93s WALL (      12 calls)
     sum_band     :      4.35s CPU      4.56s WALL (      12 calls)
     v_of_rho     :      0.21s CPU      0.23s WALL (      12 calls)
     newd         :      0.25s CPU      0.30s WALL (      12 calls)
     mix_rho      :      0.02s CPU      0.02s WALL (      12 calls)

     Called by c_bands:
     init_us_2    :      0.50s CPU      0.52s WALL (    3625 calls)
     init_us_2:cp :      0.50s CPU      0.52s WALL (    3625 calls)
     cegterg      :     18.47s CPU     19.14s WALL (    1740 calls)

     Called by *egterg:
     cdiaghg      :      0.34s CPU      0.35s WALL (    5330 calls)
     h_psi        :     16.89s CPU     17.43s WALL (    5620 calls)
     s_psi        :      0.32s CPU      0.33s WALL (    5620 calls)
     g_psi        :      0.05s CPU      0.05s WALL (    3735 calls)

     Called by h_psi:
     h_psi:calbec :      0.36s CPU      0.38s WALL (    5620 calls)
     vloc_psi     :     16.17s CPU     16.68s WALL (    5620 calls)
     add_vuspsi   :      0.32s CPU      0.33s WALL (    5620 calls)

     General routines
     calbec       :      0.50s CPU      0.52s WALL (    7360 calls)
     fft          :      0.11s CPU      0.12s WALL (     155 calls)
     ffts         :      0.01s CPU      0.01s WALL (      24 calls)
     fftw         :     16.60s CPU     17.12s WALL (  112062 calls)
     interpolate  :      0.01s CPU      0.02s WALL (      12 calls)


     PWSCF        :     25.15s CPU     26.20s WALL


   This run was terminated on:  23:16:32   6Mar2026            

=------------------------------------------------------------------------------=
   JOB DONE.
=------------------------------------------------------------------------------=
Note: The following floating-point exceptions are signalling: IEEE_INVALID_FLAG IEEE_DIVIDE_BY_ZERO IEEE_UNDERFLOW_FLAG
     ethr =  8.52E-13,  avg # of iterations =  2.0

     total cpu time spent up to now is       26.3 secs

     End of self-consistent calculation

     Number of k-points >= 100: set verbosity='high' to print the bands.

     the Fermi energy is    17.4194 ev

!    total energy              =    -117.93266572 Ry
     estimated scf accuracy    <          2.7E-13 Ry
     smearing contrib. (-TS)   =       0.00002592 Ry
     internal energy E=F+TS    =    -117.93269164 Ry

     The total energy is F=E-TS. E is the sum of the following terms:
     one-electron contribution =     -17.16909185 Ry
     hartree contribution      =      15.27414757 Ry
     xc contribution           =     -18.41386594 Ry
     ewald contribution        =     -97.62388142 Ry

     convergence has been achieved in  11 iterations

     Writing all to output data dir ./tmp/Nb_eos_6.30.save/

     init_run     :      1.11s CPU      1.16s WALL (       1 calls)
     electrons    :     23.75s CPU     25.05s WALL (       1 calls)

     Called by init_run:
     wfcinit      :      0.87s CPU      0.90s WALL (       1 calls)
     potinit      :      0.03s CPU      0.03s WALL (       1 calls)
     hinit0       :      0.17s CPU      0.19s WALL (       1 calls)

     Called by electrons:
     c_bands      :     19.05s CPU     19.97s WALL (      12 calls)
     sum_band     :      4.24s CPU      4.51s WALL (      12 calls)
     v_of_rho     :      0.21s CPU      0.24s WALL (      12 calls)
     newd         :      0.25s CPU      0.34s WALL (      12 calls)
     mix_rho      :      0.02s CPU      0.02s WALL (      12 calls)

     Called by c_bands:
     init_us_2    :      0.49s CPU      0.51s WALL (    3625 calls)
     init_us_2:cp :      0.49s CPU      0.51s WALL (    3625 calls)
     cegterg      :     18.30s CPU     19.18s WALL (    1740 calls)

     Called by *egterg:
     cdiaghg      :      0.33s CPU      0.35s WALL (    5330 calls)
     h_psi        :     16.78s CPU     17.51s WALL (    5620 calls)
     s_psi        :      0.31s CPU      0.33s WALL (    5620 calls)
     g_psi        :      0.05s CPU      0.05s WALL (    3735 calls)

     Called by h_psi:
     h_psi:calbec :      0.36s CPU      0.38s WALL (    5620 calls)
     vloc_psi     :     16.06s CPU     16.75s WALL (    5620 calls)
     add_vuspsi   :      0.32s CPU      0.34s WALL (    5620 calls)

     General routines
     calbec       :      0.50s CPU      0.52s WALL (    7360 calls)
     fft          :      0.11s CPU      0.11s WALL (     155 calls)
     ffts         :      0.01s CPU      0.01s WALL (      24 calls)
     fftw         :     16.43s CPU     17.12s WALL (  112062 calls)
     interpolate  :      0.01s CPU      0.02s WALL (      12 calls)


     PWSCF        :     24.93s CPU     26.32s WALL


   This run was terminated on:  23:16:32   6Mar2026            

=------------------------------------------------------------------------------=
   JOB DONE.
=------------------------------------------------------------------------------=
Note: The following floating-point exceptions are signalling: IEEE_INVALID_FLAG IEEE_DIVIDE_BY_ZERO IEEE_UNDERFLOW_FLAG

     total cpu time spent up to now is       26.4 secs

     End of self-consistent calculation

     Number of k-points >= 100: set verbosity='high' to print the bands.

     the Fermi energy is    17.4194 ev

!    total energy              =    -117.93266572 Ry
     estimated scf accuracy    <          2.7E-13 Ry
     smearing contrib. (-TS)   =       0.00002592 Ry
     internal energy E=F+TS    =    -117.93269164 Ry

     The total energy is F=E-TS. E is the sum of the following terms:
     one-electron contribution =     -17.16909185 Ry
     hartree contribution      =      15.27414757 Ry
     xc contribution           =     -18.41386594 Ry
     ewald contribution        =     -97.62388142 Ry

     convergence has been achieved in  11 iterations

     Writing all to output data dir ./tmp/Nb_eos_6.30.save/

     init_run     :      1.01s CPU      1.06s WALL (       1 calls)
     electrons    :     23.89s CPU     25.25s WALL (       1 calls)

     Called by init_run:
     wfcinit      :      0.79s CPU      0.82s WALL (       1 calls)
     potinit      :      0.02s CPU      0.03s WALL (       1 calls)
     hinit0       :      0.16s CPU      0.16s WALL (       1 calls)

     Called by electrons:
     c_bands      :     19.13s CPU     20.06s WALL (      12 calls)
     sum_band     :      4.29s CPU      4.63s WALL (      12 calls)
     v_of_rho     :      0.22s CPU      0.24s WALL (      12 calls)
     newd         :      0.25s CPU      0.33s WALL (      12 calls)
     mix_rho      :      0.02s CPU      0.02s WALL (      12 calls)

     Called by c_bands:
     init_us_2    :      0.49s CPU      0.52s WALL (    3625 calls)
     init_us_2:cp :      0.49s CPU      0.52s WALL (    3625 calls)
     cegterg      :     18.38s CPU     19.27s WALL (    1740 calls)

     Called by *egterg:
     cdiaghg      :      0.34s CPU      0.35s WALL (    5330 calls)
     h_psi        :     16.79s CPU     17.51s WALL (    5620 calls)
     s_psi        :      0.31s CPU      0.33s WALL (    5620 calls)
     g_psi        :      0.05s CPU      0.05s WALL (    3735 calls)

     Called by h_psi:
     h_psi:calbec :      0.36s CPU      0.38s WALL (    5620 calls)
     vloc_psi     :     16.07s CPU     16.75s WALL (    5620 calls)
     add_vuspsi   :      0.32s CPU      0.33s WALL (    5620 calls)

     General routines
     calbec       :      0.50s CPU      0.53s WALL (    7360 calls)
     fft          :      0.12s CPU      0.12s WALL (     155 calls)
     ffts         :      0.01s CPU      0.01s WALL (      24 calls)
     fftw         :     16.42s CPU     17.15s WALL (  112062 calls)
     interpolate  :      0.01s CPU      0.02s WALL (      12 calls)


     PWSCF        :     24.97s CPU     26.41s WALL


   This run was terminated on:  23:16:33   6Mar2026            

=------------------------------------------------------------------------------=
   JOB DONE.
=------------------------------------------------------------------------------=
Note: The following floating-point exceptions are signalling: IEEE_INVALID_FLAG IEEE_DIVIDE_BY_ZERO IEEE_UNDERFLOW_FLAG

     total cpu time spent up to now is       26.7 secs

     End of self-consistent calculation

     Number of k-points >= 100: set verbosity='high' to print the bands.

     the Fermi energy is    17.4194 ev

!    total energy              =    -117.93266572 Ry
     estimated scf accuracy    <          2.7E-13 Ry
     smearing contrib. (-TS)   =       0.00002592 Ry
     internal energy E=F+TS    =    -117.93269164 Ry

     The total energy is F=E-TS. E is the sum of the following terms:
     one-electron contribution =     -17.16909185 Ry
     hartree contribution      =      15.27414757 Ry
     xc contribution           =     -18.41386594 Ry
     ewald contribution        =     -97.62388142 Ry

     convergence has been achieved in  11 iterations

     Writing all to output data dir ./tmp/Nb_eos_6.30.save/

     init_run     :      1.02s CPU      1.08s WALL (       1 calls)
     electrons    :     24.35s CPU     25.52s WALL (       1 calls)

     Called by init_run:
     wfcinit      :      0.79s CPU      0.83s WALL (       1 calls)
     potinit      :      0.02s CPU      0.02s WALL (       1 calls)
     hinit0       :      0.17s CPU      0.18s WALL (       1 calls)

     Called by electrons:
     c_bands      :     19.57s CPU     20.43s WALL (      12 calls)
     sum_band     :      4.31s CPU      4.53s WALL (      12 calls)
     v_of_rho     :      0.22s CPU      0.24s WALL (      12 calls)
     newd         :      0.26s CPU      0.32s WALL (      12 calls)
     mix_rho      :      0.02s CPU      0.02s WALL (      12 calls)

     Called by c_bands:
     init_us_2    :      0.50s CPU      0.52s WALL (    3625 calls)
     init_us_2:cp :      0.50s CPU      0.52s WALL (    3625 calls)
     cegterg      :     18.79s CPU     19.61s WALL (    1740 calls)

     Called by *egterg:
     cdiaghg      :      0.35s CPU      0.36s WALL (    5330 calls)
     h_psi        :     17.13s CPU     17.82s WALL (    5620 calls)
     s_psi        :      0.32s CPU      0.33s WALL (    5620 calls)
     g_psi        :      0.05s CPU      0.05s WALL (    3735 calls)

     Called by h_psi:
     h_psi:calbec :      0.37s CPU      0.39s WALL (    5620 calls)
     vloc_psi     :     16.40s CPU     17.04s WALL (    5620 calls)
     add_vuspsi   :      0.32s CPU      0.34s WALL (    5620 calls)

     General routines
     calbec       :      0.51s CPU      0.53s WALL (    7360 calls)
     fft          :      0.12s CPU      0.12s WALL (     155 calls)
     ffts         :      0.01s CPU      0.01s WALL (      24 calls)
     fftw         :     16.77s CPU     17.41s WALL (  112062 calls)
     interpolate  :      0.01s CPU      0.02s WALL (      12 calls)


     PWSCF        :     25.45s CPU     26.70s WALL


   This run was terminated on:  23:16:33   6Mar2026            

=------------------------------------------------------------------------------=
   JOB DONE.
=------------------------------------------------------------------------------=
Note: The following floating-point exceptions are signalling: IEEE_INVALID_FLAG IEEE_DIVIDE_BY_ZERO IEEE_UNDERFLOW_FLAG
