
     Program PWSCF v.7.2 starts on  6Mar2026 at 23:17:28 

     This program is part of the open-source Quantum ESPRESSO suite
     for quantum simulation of materials; please cite
         "P. Giannozzi et al., J. Phys.:Condens. Matter 21 395502 (2009);
         "P. Giannozzi et al., J. Phys.:Condens. Matter 29 465901 (2017);
         "P. Giannozzi et al., J. Chem. Phys. 152 154105 (2020);
          URL http://www.quantum-espresso.org", 
     in publications or presentations arising from this work. More details at
     http://www.quantum-espresso.org/quote

     Serial multi-threaded version, running on    1 processor cores
     0 MiB available memory on the printing compute node when the environment starts

     Reading input from results/eos/Nb_eos_6.45.in

     Program PWSCF v.7.2 starts on  6Mar2026 at 23:17:28 

     This program is part of the open-source Quantum ESPRESSO suite
     for quantum simulation of materials; please cite
         "P. Giannozzi et al., J. Phys.:Condens. Matter 21 395502 (2009);
         "P. Giannozzi et al., J. Phys.:Condens. Matter 29 465901 (2017);
         "P. Giannozzi et al., J. Chem. Phys. 152 154105 (2020);
          URL http://www.quantum-espresso.org", 
     in publications or presentations arising from this work. More details at
     http://www.quantum-espresso.org/quote

     Serial multi-threaded version, running on    1 processor cores
     0 MiB available memory on the printing compute node when the environment starts

     Reading input from results/eos/Nb_eos_6.45.in

     Program PWSCF v.7.2 starts on  6Mar2026 at 23:17:28 

     This program is part of the open-source Quantum ESPRESSO suite
     for quantum simulation of materials; please cite
         "P. Giannozzi et al., J. Phys.:Condens. Matter 21 395502 (2009);
         "P. Giannozzi et al., J. Phys.:Condens. Matter 29 465901 (2017);
         "P. Giannozzi et al., J. Chem. Phys. 152 154105 (2020);
          URL http://www.quantum-espresso.org", 
     in publications or presentations arising from this work. More details at
     http://www.quantum-espresso.org/quote

     Serial multi-threaded version, running on    1 processor cores
     0 MiB available memory on the printing compute node when the environment starts

     Reading input from results/eos/Nb_eos_6.45.in

     Program PWSCF v.7.2 starts on  6Mar2026 at 23:17:28 

     This program is part of the open-source Quantum ESPRESSO suite
     for quantum simulation of materials; please cite
         "P. Giannozzi et al., J. Phys.:Condens. Matter 21 395502 (2009);
         "P. Giannozzi et al., J. Phys.:Condens. Matter 29 465901 (2017);
         "P. Giannozzi et al., J. Chem. Phys. 152 154105 (2020);
          URL http://www.quantum-espresso.org", 
     in publications or presentations arising from this work. More details at
     http://www.quantum-espresso.org/quote

     Serial multi-threaded version, running on    1 processor cores
     0 MiB available memory on the printing compute node when the environment starts

     Current dimensions of program PWSCF are:
     Max number of different atomic species (ntypx) = 10
     Max number of k-points (npk) =  40000
     Max angular momentum in pseudopotentials (lmaxx) =  4

     Reading input from results/eos/Nb_eos_6.45.in

     Current dimensions of program PWSCF are:
     Max number of different atomic species (ntypx) = 10
     Max number of k-points (npk) =  40000
     Max angular momentum in pseudopotentials (lmaxx) =  4

     Program PWSCF v.7.2 starts on  6Mar2026 at 23:17:28 

     This program is part of the open-source Quantum ESPRESSO suite
     for quantum simulation of materials; please cite
         "P. Giannozzi et al., J. Phys.:Condens. Matter 21 395502 (2009);
         "P. Giannozzi et al., J. Phys.:Condens. Matter 29 465901 (2017);
         "P. Giannozzi et al., J. Chem. Phys. 152 154105 (2020);
          URL http://www.quantum-espresso.org", 
     in publications or presentations arising from this work. More details at
     http://www.quantum-espresso.org/quote

     Serial multi-threaded version, running on    1 processor cores
     0 MiB available memory on the printing compute node when the environment starts


     Program PWSCF v.7.2 starts on  6Mar2026 at 23:17:28 

     This program is part of the open-source Quantum ESPRESSO suite
     for quantum simulation of materials; please cite
         "P. Giannozzi et al., J. Phys.:Condens. Matter 21 395502 (2009);
         "P. Giannozzi et al., J. Phys.:Condens. Matter 29 465901 (2017);
         "P. Giannozzi et al., J. Chem. Phys. 152 154105 (2020);
          URL http://www.quantum-espresso.org", 
     in publications or presentations arising from this work. More details at
     http://www.quantum-espresso.org/quote

     Serial multi-threaded version, running on    1 processor cores
     0 MiB available memory on the printing compute node when the environment starts


     Current dimensions of program PWSCF are:
     Max number of different atomic species (ntypx) = 10
     Max number of k-points (npk) =  40000
     Max angular momentum in pseudopotentials (lmaxx) =  4
     Reading input from results/eos/Nb_eos_6.45.in
     Reading input from results/eos/Nb_eos_6.45.in

     Current dimensions of program PWSCF are:
     Max number of different atomic species (ntypx) = 10
     Max number of k-points (npk) =  40000
     Max angular momentum in pseudopotentials (lmaxx) =  4

     Current dimensions of program PWSCF are:
     Max number of different atomic species (ntypx) = 10
     Max number of k-points (npk) =  40000
     Max angular momentum in pseudopotentials (lmaxx) =  4

     Current dimensions of program PWSCF are:
     Max number of different atomic species (ntypx) = 10
     Max number of k-points (npk) =  40000
     Max angular momentum in pseudopotentials (lmaxx) =  4


     G-vector sticks info
     --------------------
     sticks:   dense  smooth     PW     G-vecs:    dense   smooth      PW
     Sum        1315     657    205                30093    10641    1865

     Using Slab Decomposition



     bravais-lattice index     =            3
     lattice parameter (alat)  =       6.4500  a.u.
     unit-cell volume          =     134.1681 (a.u.)^3
     number of atoms/cell      =            1
     number of atomic types    =            1
     number of electrons       =        13.00
     number of Kohn-Sham states=           11
     kinetic-energy cutoff     =      70.0000  Ry
     charge density cutoff     =     560.0000  Ry
     scf convergence threshold =      1.0E-10
     mixing beta               =       0.4000
     number of iterations used =            8  plain     mixing
     Exchange-correlation= SLA  PW   PBE  PBE
                           (   1   4   3   4   0   0   0)

     celldm(1)=   6.450000  celldm(2)=   0.000000  celldm(3)=   0.000000
     celldm(4)=   0.000000  celldm(5)=   0.000000  celldm(6)=   0.000000

     crystal axes: (cart. coord. in units of alat)
               a(1) = (   0.500000   0.500000   0.500000 )  
               a(2) = (  -0.500000   0.500000   0.500000 )  
               a(3) = (  -0.500000  -0.500000   0.500000 )  

     reciprocal axes: (cart. coord. in units 2 pi/alat)
               b(1) = (  1.000000  0.000000  1.000000 )  
               b(2) = ( -1.000000  1.000000  0.000000 )  
               b(3) = (  0.000000 -1.000000  1.000000 )  


     PseudoPot. # 1 for Nb read from file:
     ./pseudo/nb_pbe_v1.uspp.F.UPF
     MD5 check sum: 573aab8a2fa660278ed4a62cd769473f
     Pseudo is Ultrasoft + core correction, Zval = 13.0

     Generated by new atomic code, or converted to UPF format
     Using radial grid of  887 points,  6 beta functions with: 
                l(1) =   0
                l(2) =   0
                l(3) =   1
                l(4) =   1
                l(5) =   2
                l(6) =   2
     Q(r) pseudized with  6 coefficients,  rinner =    1.000   1.000   1.000
                                                       1.000   1.000

     atomic species   valence    mass     pseudopotential
        Nb            13.00    92.90600     Nb( 1.00)

     48 Sym. Ops., with inversion, found



   Cartesian axes

     site n.     atom                  positions (alat units)
         1           Nb  tau(   1) = (   0.0000000   0.0000000   0.0000000  )

     number of k points=   145  Marzari-Vanderbilt smearing, width (Ry)=  0.0300

     Number of k-points >= 100: set verbosity='high' to print them.

     Dense  grid:    30093 G-vectors     FFT dimensions: (  45,  45,  45)

     Smooth grid:    10641 G-vectors     FFT dimensions: (  30,  30,  30)

     Estimated max dynamical RAM per process >     139.27 MB

     G-vector sticks info
     --------------------
     sticks:   dense  smooth     PW     G-vecs:    dense   smooth      PW
     Sum        1315     657    205                30093    10641    1865

     Using Slab Decomposition



     bravais-lattice index     =            3
     lattice parameter (alat)  =       6.4500  a.u.
     unit-cell volume          =     134.1681 (a.u.)^3
     number of atoms/cell      =            1
     number of atomic types    =            1
     number of electrons       =        13.00
     number of Kohn-Sham states=           11
     kinetic-energy cutoff     =      70.0000  Ry
     charge density cutoff     =     560.0000  Ry
     scf convergence threshold =      1.0E-10
     mixing beta               =       0.4000
     number of iterations used =            8  plain     mixing
     Exchange-correlation= SLA  PW   PBE  PBE
                           (   1   4   3   4   0   0   0)

     celldm(1)=   6.450000  celldm(2)=   0.000000  celldm(3)=   0.000000
     celldm(4)=   0.000000  celldm(5)=   0.000000  celldm(6)=   0.000000

     crystal axes: (cart. coord. in units of alat)
               a(1) = (   0.500000   0.500000   0.500000 )  
               a(2) = (  -0.500000   0.500000   0.500000 )  
               a(3) = (  -0.500000  -0.500000   0.500000 )  

     reciprocal axes: (cart. coord. in units 2 pi/alat)
               b(1) = (  1.000000  0.000000  1.000000 )  
               b(2) = ( -1.000000  1.000000  0.000000 )  
               b(3) = (  0.000000 -1.000000  1.000000 )  


     PseudoPot. # 1 for Nb read from file:
     ./pseudo/nb_pbe_v1.uspp.F.UPF
     MD5 check sum: 573aab8a2fa660278ed4a62cd769473f
     Pseudo is Ultrasoft + core correction, Zval = 13.0
     Generated by new atomic code, or converted to UPF format
     Using radial grid of  887 points,  6 beta functions with: 
                l(1) =   0
                l(2) =   0
                l(3) =   1
                l(4) =   1
                l(5) =   2
                l(6) =   2
     Q(r) pseudized with  6 coefficients,  rinner =    1.000   1.000   1.000
                                                       1.000   1.000

     atomic species   valence    mass     pseudopotential
        Nb            13.00    92.90600     Nb( 1.00)

     48 Sym. Ops., with inversion, found



   Cartesian axes

     site n.     atom                  positions (alat units)
         1           Nb  tau(   1) = (   0.0000000   0.0000000   0.0000000  )

     number of k points=   145  Marzari-Vanderbilt smearing, width (Ry)=  0.0300

     Number of k-points >= 100: set verbosity='high' to print them.

     Dense  grid:    30093 G-vectors     FFT dimensions: (  45,  45,  45)

     Smooth grid:    10641 G-vectors     FFT dimensions: (  30,  30,  30)

     Estimated max dynamical RAM per process >     139.27 MB


     G-vector sticks info
     --------------------
     sticks:   dense  smooth     PW     G-vecs:    dense   smooth      PW
     Sum        1315     657    205                30093    10641    1865

     Using Slab Decomposition



     bravais-lattice index     =            3
     lattice parameter (alat)  =       6.4500  a.u.
     unit-cell volume          =     134.1681 (a.u.)^3
     number of atoms/cell      =            1
     number of atomic types    =            1
     number of electrons       =        13.00
     number of Kohn-Sham states=           11
     kinetic-energy cutoff     =      70.0000  Ry
     charge density cutoff     =     560.0000  Ry
     scf convergence threshold =      1.0E-10
     mixing beta               =       0.4000
     number of iterations used =            8  plain     mixing
     Exchange-correlation= SLA  PW   PBE  PBE
                           (   1   4   3   4   0   0   0)

     celldm(1)=   6.450000  celldm(2)=   0.000000  celldm(3)=   0.000000
     celldm(4)=   0.000000  celldm(5)=   0.000000  celldm(6)=   0.000000

     crystal axes: (cart. coord. in units of alat)
               a(1) = (   0.500000   0.500000   0.500000 )  
               a(2) = (  -0.500000   0.500000   0.500000 )  
               a(3) = (  -0.500000  -0.500000   0.500000 )  

     reciprocal axes: (cart. coord. in units 2 pi/alat)
               b(1) = (  1.000000  0.000000  1.000000 )  
               b(2) = ( -1.000000  1.000000  0.000000 )  
               b(3) = (  0.000000 -1.000000  1.000000 )  


     PseudoPot. # 1 for Nb read from file:
     ./pseudo/nb_pbe_v1.uspp.F.UPF
     MD5 check sum: 573aab8a2fa660278ed4a62cd769473f
     Pseudo is Ultrasoft + core correction, Zval = 13.0
     Generated by new atomic code, or converted to UPF format
     Using radial grid of  887 points,  6 beta functions with: 
                l(1) =   0
                l(2) =   0
                l(3) =   1
                l(4) =   1
                l(5) =   2
                l(6) =   2
     Q(r) pseudized with  6 coefficients,  rinner =    1.000   1.000   1.000
                                                       1.000   1.000

     atomic species   valence    mass     pseudopotential
        Nb            13.00    92.90600     Nb( 1.00)

     48 Sym. Ops., with inversion, found



   Cartesian axes

     site n.     atom                  positions (alat units)
         1           Nb  tau(   1) = (   0.0000000   0.0000000   0.0000000  )

     number of k points=   145  Marzari-Vanderbilt smearing, width (Ry)=  0.0300

     Number of k-points >= 100: set verbosity='high' to print them.

     Dense  grid:    30093 G-vectors     FFT dimensions: (  45,  45,  45)

     Smooth grid:    10641 G-vectors     FFT dimensions: (  30,  30,  30)

     Estimated max dynamical RAM per process >     139.27 MB


     G-vector sticks info
     --------------------
     sticks:   dense  smooth     PW     G-vecs:    dense   smooth      PW
     Sum        1315     657    205                30093    10641    1865

     Using Slab Decomposition



     bravais-lattice index     =            3
     lattice parameter (alat)  =       6.4500  a.u.
     unit-cell volume          =     134.1681 (a.u.)^3
     number of atoms/cell      =            1
     number of atomic types    =            1
     number of electrons       =        13.00
     number of Kohn-Sham states=           11
     kinetic-energy cutoff     =      70.0000  Ry
     charge density cutoff     =     560.0000  Ry
     scf convergence threshold =      1.0E-10
     mixing beta               =       0.4000
     number of iterations used =            8  plain     mixing
     Exchange-correlation= SLA  PW   PBE  PBE
                           (   1   4   3   4   0   0   0)

     celldm(1)=   6.450000  celldm(2)=   0.000000  celldm(3)=   0.000000
     celldm(4)=   0.000000  celldm(5)=   0.000000  celldm(6)=   0.000000

     crystal axes: (cart. coord. in units of alat)
               a(1) = (   0.500000   0.500000   0.500000 )  
               a(2) = (  -0.500000   0.500000   0.500000 )  
               a(3) = (  -0.500000  -0.500000   0.500000 )  

     reciprocal axes: (cart. coord. in units 2 pi/alat)
               b(1) = (  1.000000  0.000000  1.000000 )  
               b(2) = ( -1.000000  1.000000  0.000000 )  
               b(3) = (  0.000000 -1.000000  1.000000 )  


     PseudoPot. # 1 for Nb read from file:
     ./pseudo/nb_pbe_v1.uspp.F.UPF
     MD5 check sum: 573aab8a2fa660278ed4a62cd769473f
     Pseudo is Ultrasoft + core correction, Zval = 13.0
     Generated by new atomic code, or converted to UPF format
     Using radial grid of  887 points,  6 beta functions with: 
                l(1) =   0
                l(2) =   0
                l(3) =   1
                l(4) =   1
                l(5) =   2
                l(6) =   2
     Q(r) pseudized with  6 coefficients,  rinner =    1.000   1.000   1.000
                                                       1.000   1.000

     atomic species   valence    mass     pseudopotential
        Nb            13.00    92.90600     Nb( 1.00)

     48 Sym. Ops., with inversion, found



   Cartesian axes

     site n.     atom                  positions (alat units)
         1           Nb  tau(   1) = (   0.0000000   0.0000000   0.0000000  )

     number of k points=   145  Marzari-Vanderbilt smearing, width (Ry)=  0.0300

     Number of k-points >= 100: set verbosity='high' to print them.

     Dense  grid:    30093 G-vectors     FFT dimensions: (  45,  45,  45)

     Smooth grid:    10641 G-vectors     FFT dimensions: (  30,  30,  30)

     Estimated max dynamical RAM per process >     139.27 MB


     G-vector sticks info
     --------------------
     sticks:   dense  smooth     PW     G-vecs:    dense   smooth      PW
     Sum        1315     657    205                30093    10641    1865

     Using Slab Decomposition



     bravais-lattice index     =            3
     lattice parameter (alat)  =       6.4500  a.u.
     unit-cell volume          =     134.1681 (a.u.)^3
     number of atoms/cell      =            1
     number of atomic types    =            1
     number of electrons       =        13.00
     number of Kohn-Sham states=           11
     kinetic-energy cutoff     =      70.0000  Ry
     charge density cutoff     =     560.0000  Ry
     scf convergence threshold =      1.0E-10
     mixing beta               =       0.4000
     number of iterations used =            8  plain     mixing
     Exchange-correlation= SLA  PW   PBE  PBE
                           (   1   4   3   4   0   0   0)

     celldm(1)=   6.450000  celldm(2)=   0.000000  celldm(3)=   0.000000
     celldm(4)=   0.000000  celldm(5)=   0.000000  celldm(6)=   0.000000

     crystal axes: (cart. coord. in units of alat)
               a(1) = (   0.500000   0.500000   0.500000 )  
               a(2) = (  -0.500000   0.500000   0.500000 )  
               a(3) = (  -0.500000  -0.500000   0.500000 )  

     reciprocal axes: (cart. coord. in units 2 pi/alat)
               b(1) = (  1.000000  0.000000  1.000000 )  
               b(2) = ( -1.000000  1.000000  0.000000 )  
               b(3) = (  0.000000 -1.000000  1.000000 )  


     PseudoPot. # 1 for Nb read from file:
     ./pseudo/nb_pbe_v1.uspp.F.UPF
     MD5 check sum: 573aab8a2fa660278ed4a62cd769473f
     Pseudo is Ultrasoft + core correction, Zval = 13.0
     Generated by new atomic code, or converted to UPF format
     Using radial grid of  887 points,  6 beta functions with: 
                l(1) =   0
                l(2) =   0
                l(3) =   1
                l(4) =   1
                l(5) =   2
                l(6) =   2
     Q(r) pseudized with  6 coefficients,  rinner =    1.000   1.000   1.000
                                                       1.000   1.000

     atomic species   valence    mass     pseudopotential
        Nb            13.00    92.90600     Nb( 1.00)

     48 Sym. Ops., with inversion, found



   Cartesian axes

     site n.     atom                  positions (alat units)
         1           Nb  tau(   1) = (   0.0000000   0.0000000   0.0000000  )

     number of k points=   145  Marzari-Vanderbilt smearing, width (Ry)=  0.0300

     Number of k-points >= 100: set verbosity='high' to print them.

     Dense  grid:    30093 G-vectors     FFT dimensions: (  45,  45,  45)

     Smooth grid:    10641 G-vectors     FFT dimensions: (  30,  30,  30)

     Estimated max dynamical RAM per process >     139.27 MB


     G-vector sticks info
     --------------------
     sticks:   dense  smooth     PW     G-vecs:    dense   smooth      PW
     Sum        1315     657    205                30093    10641    1865

     Using Slab Decomposition



     bravais-lattice index     =            3
     lattice parameter (alat)  =       6.4500  a.u.
     unit-cell volume          =     134.1681 (a.u.)^3
     number of atoms/cell      =            1
     number of atomic types    =            1
     number of electrons       =        13.00
     number of Kohn-Sham states=           11
     kinetic-energy cutoff     =      70.0000  Ry
     charge density cutoff     =     560.0000  Ry
     scf convergence threshold =      1.0E-10
     mixing beta               =       0.4000
     number of iterations used =            8  plain     mixing
     Exchange-correlation= SLA  PW   PBE  PBE
                           (   1   4   3   4   0   0   0)

     celldm(1)=   6.450000  celldm(2)=   0.000000  celldm(3)=   0.000000
     celldm(4)=   0.000000  celldm(5)=   0.000000  celldm(6)=   0.000000

     crystal axes: (cart. coord. in units of alat)
               a(1) = (   0.500000   0.500000   0.500000 )  
               a(2) = (  -0.500000   0.500000   0.500000 )  
               a(3) = (  -0.500000  -0.500000   0.500000 )  

     reciprocal axes: (cart. coord. in units 2 pi/alat)
               b(1) = (  1.000000  0.000000  1.000000 )  
               b(2) = ( -1.000000  1.000000  0.000000 )  
               b(3) = (  0.000000 -1.000000  1.000000 )  


     PseudoPot. # 1 for Nb read from file:
     ./pseudo/nb_pbe_v1.uspp.F.UPF
     MD5 check sum: 573aab8a2fa660278ed4a62cd769473f
     Pseudo is Ultrasoft + core correction, Zval = 13.0
     Generated by new atomic code, or converted to UPF format
     Using radial grid of  887 points,  6 beta functions with: 
                l(1) =   0
                l(2) =   0
                l(3) =   1
                l(4) =   1
                l(5) =   2
                l(6) =   2
     Q(r) pseudized with  6 coefficients,  rinner =    1.000   1.000   1.000
                                                       1.000   1.000

     atomic species   valence    mass     pseudopotential
        Nb            13.00    92.90600     Nb( 1.00)

     48 Sym. Ops., with inversion, found



   Cartesian axes

     site n.     atom                  positions (alat units)
         1           Nb  tau(   1) = (   0.0000000   0.0000000   0.0000000  )

     number of k points=   145  Marzari-Vanderbilt smearing, width (Ry)=  0.0300

     Number of k-points >= 100: set verbosity='high' to print them.

     Dense  grid:    30093 G-vectors     FFT dimensions: (  45,  45,  45)

     Smooth grid:    10641 G-vectors     FFT dimensions: (  30,  30,  30)

     Estimated max dynamical RAM per process >     139.27 MB

     Initial potential from superposition of free atoms

     Initial potential from superposition of free atoms

     starting charge      12.9973, renormalised to      13.0000

     starting charge      12.9973, renormalised to      13.0000

     Initial potential from superposition of free atoms

     starting charge      12.9973, renormalised to      13.0000

     Initial potential from superposition of free atoms

     starting charge      12.9973, renormalised to      13.0000

     Initial potential from superposition of free atoms

     starting charge      12.9973, renormalised to      13.0000

     Initial potential from superposition of free atoms

     starting charge      12.9973, renormalised to      13.0000
     Starting wfcs are   13 randomized atomic wfcs
     Starting wfcs are   13 randomized atomic wfcs
     Starting wfcs are   13 randomized atomic wfcs
     Starting wfcs are   13 randomized atomic wfcs
     Starting wfcs are   13 randomized atomic wfcs
     Starting wfcs are   13 randomized atomic wfcs

     total cpu time spent up to now is        1.1 secs

     Self-consistent Calculation

     iteration #  1     ecut=    70.00 Ry     beta= 0.40
     Davidson diagonalization with overlap

     total cpu time spent up to now is        1.2 secs

     Self-consistent Calculation

     iteration #  1     ecut=    70.00 Ry     beta= 0.40
     Davidson diagonalization with overlap

     total cpu time spent up to now is        1.2 secs

     Self-consistent Calculation

     iteration #  1     ecut=    70.00 Ry     beta= 0.40
     Davidson diagonalization with overlap

     total cpu time spent up to now is        1.3 secs

     Self-consistent Calculation

     iteration #  1     ecut=    70.00 Ry     beta= 0.40
     Davidson diagonalization with overlap

     total cpu time spent up to now is        1.3 secs

     Self-consistent Calculation

     iteration #  1     ecut=    70.00 Ry     beta= 0.40
     Davidson diagonalization with overlap

     total cpu time spent up to now is        1.3 secs

     Self-consistent Calculation

     iteration #  1     ecut=    70.00 Ry     beta= 0.40
     Davidson diagonalization with overlap
     ethr =  1.00E-02,  avg # of iterations =  3.2
     ethr =  1.00E-02,  avg # of iterations =  3.2
     ethr =  1.00E-02,  avg # of iterations =  3.2
     ethr =  1.00E-02,  avg # of iterations =  3.2
     ethr =  1.00E-02,  avg # of iterations =  3.2
     ethr =  1.00E-02,  avg # of iterations =  3.2

     Threshold (ethr) on eigenvalues was too large:
     Diagonalizing with lowered threshold

     Davidson diagonalization with overlap

     Threshold (ethr) on eigenvalues was too large:
     Diagonalizing with lowered threshold

     Davidson diagonalization with overlap

     Threshold (ethr) on eigenvalues was too large:
     Diagonalizing with lowered threshold

     Davidson diagonalization with overlap

     Threshold (ethr) on eigenvalues was too large:
     Diagonalizing with lowered threshold

     Davidson diagonalization with overlap

     Threshold (ethr) on eigenvalues was too large:
     Diagonalizing with lowered threshold

     Davidson diagonalization with overlap

     Threshold (ethr) on eigenvalues was too large:
     Diagonalizing with lowered threshold

     Davidson diagonalization with overlap
     ethr =  8.04E-04,  avg # of iterations =  1.1
     ethr =  8.04E-04,  avg # of iterations =  1.1
     ethr =  8.04E-04,  avg # of iterations =  1.1
     ethr =  8.04E-04,  avg # of iterations =  1.1
     ethr =  8.04E-04,  avg # of iterations =  1.1

     total cpu time spent up to now is        5.1 secs

     total energy              =    -117.91991731 Ry
     estimated scf accuracy    <       0.10862300 Ry

     iteration #  2     ecut=    70.00 Ry     beta= 0.40
     Davidson diagonalization with overlap
     ethr =  8.04E-04,  avg # of iterations =  1.1

     total cpu time spent up to now is        5.1 secs

     total energy              =    -117.91991731 Ry
     estimated scf accuracy    <       0.10862300 Ry

     iteration #  2     ecut=    70.00 Ry     beta= 0.40
     Davidson diagonalization with overlap

     total cpu time spent up to now is        5.3 secs

     total energy              =    -117.91991731 Ry
     estimated scf accuracy    <       0.10862300 Ry

     iteration #  2     ecut=    70.00 Ry     beta= 0.40
     Davidson diagonalization with overlap

     total cpu time spent up to now is        5.3 secs

     total energy              =    -117.91991731 Ry
     estimated scf accuracy    <       0.10862300 Ry

     iteration #  2     ecut=    70.00 Ry     beta= 0.40
     Davidson diagonalization with overlap

     total cpu time spent up to now is        5.4 secs

     total energy              =    -117.91991731 Ry
     estimated scf accuracy    <       0.10862300 Ry

     iteration #  2     ecut=    70.00 Ry     beta= 0.40
     Davidson diagonalization with overlap

     total cpu time spent up to now is        5.6 secs

     total energy              =    -117.91991731 Ry
     estimated scf accuracy    <       0.10862300 Ry

     iteration #  2     ecut=    70.00 Ry     beta= 0.40
     Davidson diagonalization with overlap
     ethr =  8.36E-04,  avg # of iterations =  1.9
     ethr =  8.36E-04,  avg # of iterations =  1.9
     ethr =  8.36E-04,  avg # of iterations =  1.9
     ethr =  8.36E-04,  avg # of iterations =  1.9
     ethr =  8.36E-04,  avg # of iterations =  1.9

     total cpu time spent up to now is        7.1 secs

     total energy              =    -117.92482574 Ry
     estimated scf accuracy    <       0.01245452 Ry

     iteration #  3     ecut=    70.00 Ry     beta= 0.40
     Davidson diagonalization with overlap
     ethr =  8.36E-04,  avg # of iterations =  1.9

     total cpu time spent up to now is        7.1 secs

     total energy              =    -117.92482574 Ry
     estimated scf accuracy    <       0.01245452 Ry

     iteration #  3     ecut=    70.00 Ry     beta= 0.40
     Davidson diagonalization with overlap

     total cpu time spent up to now is        7.3 secs

     total energy              =    -117.92482574 Ry
     estimated scf accuracy    <       0.01245452 Ry

     iteration #  3     ecut=    70.00 Ry     beta= 0.40
     Davidson diagonalization with overlap

     total cpu time spent up to now is        7.4 secs

     total energy              =    -117.92482574 Ry
     estimated scf accuracy    <       0.01245452 Ry

     iteration #  3     ecut=    70.00 Ry     beta= 0.40
     Davidson diagonalization with overlap

     total cpu time spent up to now is        7.4 secs

     total energy              =    -117.92482574 Ry
     estimated scf accuracy    <       0.01245452 Ry

     iteration #  3     ecut=    70.00 Ry     beta= 0.40
     Davidson diagonalization with overlap

     total cpu time spent up to now is        7.5 secs

     total energy              =    -117.92482574 Ry
     estimated scf accuracy    <       0.01245452 Ry

     iteration #  3     ecut=    70.00 Ry     beta= 0.40
     Davidson diagonalization with overlap
     ethr =  9.58E-05,  avg # of iterations =  2.4
     ethr =  9.58E-05,  avg # of iterations =  2.4
     ethr =  9.58E-05,  avg # of iterations =  2.4
     ethr =  9.58E-05,  avg # of iterations =  2.4

     total cpu time spent up to now is        9.1 secs

     total energy              =    -117.92706331 Ry
     estimated scf accuracy    <       0.00077697 Ry

     iteration #  4     ecut=    70.00 Ry     beta= 0.40
     Davidson diagonalization with overlap
     ethr =  9.58E-05,  avg # of iterations =  2.4
     ethr =  9.58E-05,  avg # of iterations =  2.4

     total cpu time spent up to now is        9.4 secs

     total energy              =    -117.92706331 Ry
     estimated scf accuracy    <       0.00077697 Ry

     iteration #  4     ecut=    70.00 Ry     beta= 0.40
     Davidson diagonalization with overlap

     total cpu time spent up to now is        9.5 secs

     total energy              =    -117.92706331 Ry
     estimated scf accuracy    <       0.00077697 Ry

     iteration #  4     ecut=    70.00 Ry     beta= 0.40
     Davidson diagonalization with overlap

     total cpu time spent up to now is        9.6 secs

     total energy              =    -117.92706331 Ry
     estimated scf accuracy    <       0.00077697 Ry

     iteration #  4     ecut=    70.00 Ry     beta= 0.40
     Davidson diagonalization with overlap

     total cpu time spent up to now is        9.7 secs

     total energy              =    -117.92706331 Ry
     estimated scf accuracy    <       0.00077697 Ry

     iteration #  4     ecut=    70.00 Ry     beta= 0.40
     Davidson diagonalization with overlap

     total cpu time spent up to now is        9.7 secs

     total energy              =    -117.92706331 Ry
     estimated scf accuracy    <       0.00077697 Ry

     iteration #  4     ecut=    70.00 Ry     beta= 0.40
     Davidson diagonalization with overlap
     ethr =  5.98E-06,  avg # of iterations =  2.9
     ethr =  5.98E-06,  avg # of iterations =  2.9
     ethr =  5.98E-06,  avg # of iterations =  2.9

     total cpu time spent up to now is       11.4 secs

     total energy              =    -117.92712419 Ry
     estimated scf accuracy    <       0.00011268 Ry

     iteration #  5     ecut=    70.00 Ry     beta= 0.40
     Davidson diagonalization with overlap
     ethr =  5.98E-06,  avg # of iterations =  2.9
     ethr =  5.98E-06,  avg # of iterations =  2.9

     total cpu time spent up to now is       11.6 secs

     total energy              =    -117.92712419 Ry
     estimated scf accuracy    <       0.00011268 Ry

     iteration #  5     ecut=    70.00 Ry     beta= 0.40
     Davidson diagonalization with overlap
     ethr =  5.98E-06,  avg # of iterations =  2.9

     total cpu time spent up to now is       11.7 secs

     total energy              =    -117.92712419 Ry
     estimated scf accuracy    <       0.00011268 Ry

     iteration #  5     ecut=    70.00 Ry     beta= 0.40
     Davidson diagonalization with overlap

     total cpu time spent up to now is       11.8 secs

     total energy              =    -117.92712419 Ry
     estimated scf accuracy    <       0.00011268 Ry

     iteration #  5     ecut=    70.00 Ry     beta= 0.40
     Davidson diagonalization with overlap

     total cpu time spent up to now is       12.0 secs

     total energy              =    -117.92712419 Ry
     estimated scf accuracy    <       0.00011268 Ry

     iteration #  5     ecut=    70.00 Ry     beta= 0.40
     Davidson diagonalization with overlap

     total cpu time spent up to now is       12.1 secs

     total energy              =    -117.92712419 Ry
     estimated scf accuracy    <       0.00011268 Ry

     iteration #  5     ecut=    70.00 Ry     beta= 0.40
     Davidson diagonalization with overlap
     ethr =  8.67E-07,  avg # of iterations =  2.6
     ethr =  8.67E-07,  avg # of iterations =  2.6
     ethr =  8.67E-07,  avg # of iterations =  2.6
     ethr =  8.67E-07,  avg # of iterations =  2.6

     total cpu time spent up to now is       13.6 secs

     total energy              =    -117.92715384 Ry
     estimated scf accuracy    <       0.00002601 Ry

     iteration #  6     ecut=    70.00 Ry     beta= 0.40
     Davidson diagonalization with overlap

     total cpu time spent up to now is       13.8 secs

     total energy              =    -117.92715384 Ry
     estimated scf accuracy    <       0.00002601 Ry

     iteration #  6     ecut=    70.00 Ry     beta= 0.40
     Davidson diagonalization with overlap
     ethr =  8.67E-07,  avg # of iterations =  2.6

     total cpu time spent up to now is       14.1 secs

     total energy              =    -117.92715384 Ry
     estimated scf accuracy    <       0.00002601 Ry

     iteration #  6     ecut=    70.00 Ry     beta= 0.40
     Davidson diagonalization with overlap

     total cpu time spent up to now is       14.1 secs

     total energy              =    -117.92715384 Ry
     estimated scf accuracy    <       0.00002601 Ry

     iteration #  6     ecut=    70.00 Ry     beta= 0.40
     Davidson diagonalization with overlap
     ethr =  8.67E-07,  avg # of iterations =  2.6

     total cpu time spent up to now is       14.4 secs

     total energy              =    -117.92715384 Ry
     estimated scf accuracy    <       0.00002601 Ry

     iteration #  6     ecut=    70.00 Ry     beta= 0.40
     Davidson diagonalization with overlap

     total cpu time spent up to now is       14.6 secs

     total energy              =    -117.92715384 Ry
     estimated scf accuracy    <       0.00002601 Ry

     iteration #  6     ecut=    70.00 Ry     beta= 0.40
     Davidson diagonalization with overlap
     ethr =  2.00E-07,  avg # of iterations =  2.0
     ethr =  2.00E-07,  avg # of iterations =  2.0

     total cpu time spent up to now is       15.5 secs

     total energy              =    -117.92715781 Ry
     estimated scf accuracy    <       0.00000003 Ry

     iteration #  7     ecut=    70.00 Ry     beta= 0.40
     Davidson diagonalization with overlap
     ethr =  2.00E-07,  avg # of iterations =  2.0
     ethr =  2.00E-07,  avg # of iterations =  2.0

     total cpu time spent up to now is       15.8 secs

     total energy              =    -117.92715781 Ry
     estimated scf accuracy    <       0.00000003 Ry

     iteration #  7     ecut=    70.00 Ry     beta= 0.40
     Davidson diagonalization with overlap
     ethr =  2.00E-07,  avg # of iterations =  2.0

     total cpu time spent up to now is       16.1 secs

     total energy              =    -117.92715781 Ry
     estimated scf accuracy    <       0.00000003 Ry

     iteration #  7     ecut=    70.00 Ry     beta= 0.40
     Davidson diagonalization with overlap

     total cpu time spent up to now is       16.2 secs

     total energy              =    -117.92715781 Ry
     estimated scf accuracy    <       0.00000003 Ry

     iteration #  7     ecut=    70.00 Ry     beta= 0.40
     Davidson diagonalization with overlap
     ethr =  2.00E-07,  avg # of iterations =  2.0

     total cpu time spent up to now is       16.5 secs

     total energy              =    -117.92715781 Ry
     estimated scf accuracy    <       0.00000003 Ry

     iteration #  7     ecut=    70.00 Ry     beta= 0.40
     Davidson diagonalization with overlap

     total cpu time spent up to now is       16.8 secs

     total energy              =    -117.92715781 Ry
     estimated scf accuracy    <       0.00000003 Ry

     iteration #  7     ecut=    70.00 Ry     beta= 0.40
     Davidson diagonalization with overlap
     ethr =  2.21E-10,  avg # of iterations =  3.4

     total cpu time spent up to now is       18.0 secs

     total energy              =    -117.92715786 Ry
     estimated scf accuracy    <          9.8E-09 Ry

     iteration #  8     ecut=    70.00 Ry     beta= 0.40
     Davidson diagonalization with overlap
     ethr =  2.21E-10,  avg # of iterations =  3.4
     ethr =  2.21E-10,  avg # of iterations =  3.4
     ethr =  2.21E-10,  avg # of iterations =  3.4

     total cpu time spent up to now is       18.5 secs

     total energy              =    -117.92715786 Ry
     estimated scf accuracy    <          9.8E-09 Ry

     iteration #  8     ecut=    70.00 Ry     beta= 0.40
     Davidson diagonalization with overlap

     total cpu time spent up to now is       18.6 secs

     total energy              =    -117.92715786 Ry
     estimated scf accuracy    <          9.8E-09 Ry

     iteration #  8     ecut=    70.00 Ry     beta= 0.40
     Davidson diagonalization with overlap

     total cpu time spent up to now is       18.7 secs

     total energy              =    -117.92715786 Ry
     estimated scf accuracy    <          9.8E-09 Ry

     iteration #  8     ecut=    70.00 Ry     beta= 0.40
     Davidson diagonalization with overlap
     ethr =  2.21E-10,  avg # of iterations =  3.4
     ethr =  2.21E-10,  avg # of iterations =  3.4

     total cpu time spent up to now is       19.1 secs

     total energy              =    -117.92715786 Ry
     estimated scf accuracy    <          9.8E-09 Ry

     iteration #  8     ecut=    70.00 Ry     beta= 0.40
     Davidson diagonalization with overlap

     total cpu time spent up to now is       19.4 secs

     total energy              =    -117.92715786 Ry
     estimated scf accuracy    <          9.8E-09 Ry

     iteration #  8     ecut=    70.00 Ry     beta= 0.40
     Davidson diagonalization with overlap
     ethr =  7.55E-11,  avg # of iterations =  1.0
     ethr =  7.55E-11,  avg # of iterations =  1.0
     ethr =  7.55E-11,  avg # of iterations =  1.0
     ethr =  7.55E-11,  avg # of iterations =  1.0

     total cpu time spent up to now is       20.1 secs

     total energy              =    -117.92715786 Ry
     estimated scf accuracy    <          5.0E-10 Ry

     iteration #  9     ecut=    70.00 Ry     beta= 0.40
     Davidson diagonalization with overlap

     total cpu time spent up to now is       20.2 secs

     total energy              =    -117.92715786 Ry
     estimated scf accuracy    <          5.0E-10 Ry

     iteration #  9     ecut=    70.00 Ry     beta= 0.40
     Davidson diagonalization with overlap

     total cpu time spent up to now is       20.4 secs

     total energy              =    -117.92715786 Ry
     estimated scf accuracy    <          5.0E-10 Ry

     iteration #  9     ecut=    70.00 Ry     beta= 0.40
     Davidson diagonalization with overlap
     ethr =  7.55E-11,  avg # of iterations =  1.0

     total cpu time spent up to now is       20.4 secs

     total energy              =    -117.92715786 Ry
     estimated scf accuracy    <          5.0E-10 Ry

     iteration #  9     ecut=    70.00 Ry     beta= 0.40
     Davidson diagonalization with overlap
     ethr =  7.55E-11,  avg # of iterations =  1.0

     total cpu time spent up to now is       20.9 secs

     total energy              =    -117.92715786 Ry
     estimated scf accuracy    <          5.0E-10 Ry

     iteration #  9     ecut=    70.00 Ry     beta= 0.40
     Davidson diagonalization with overlap

     total cpu time spent up to now is       21.2 secs

     total energy              =    -117.92715786 Ry
     estimated scf accuracy    <          5.0E-10 Ry

     iteration #  9     ecut=    70.00 Ry     beta= 0.40
     Davidson diagonalization with overlap
     ethr =  3.86E-12,  avg # of iterations =  3.0
     ethr =  3.86E-12,  avg # of iterations =  3.0
     ethr =  3.86E-12,  avg # of iterations =  3.0
     ethr =  3.86E-12,  avg # of iterations =  3.0

     total cpu time spent up to now is       22.6 secs

     total energy              =    -117.92715786 Ry
     estimated scf accuracy    <          1.0E-09 Ry

     iteration # 10     ecut=    70.00 Ry     beta= 0.40
     Davidson diagonalization with overlap

     total cpu time spent up to now is       22.6 secs

     total energy              =    -117.92715786 Ry
     estimated scf accuracy    <          1.0E-09 Ry

     iteration # 10     ecut=    70.00 Ry     beta= 0.40
     Davidson diagonalization with overlap
     ethr =  3.86E-12,  avg # of iterations =  3.0

     total cpu time spent up to now is       22.7 secs

     total energy              =    -117.92715786 Ry
     estimated scf accuracy    <          1.0E-09 Ry

     iteration # 10     ecut=    70.00 Ry     beta= 0.40
     Davidson diagonalization with overlap

     total cpu time spent up to now is       22.7 secs

     total energy              =    -117.92715786 Ry
     estimated scf accuracy    <          1.0E-09 Ry

     iteration # 10     ecut=    70.00 Ry     beta= 0.40
     Davidson diagonalization with overlap

     total cpu time spent up to now is       23.1 secs

     total energy              =    -117.92715786 Ry
     estimated scf accuracy    <          1.0E-09 Ry

     iteration # 10     ecut=    70.00 Ry     beta= 0.40
     Davidson diagonalization with overlap
     ethr =  3.86E-12,  avg # of iterations =  3.0

     total cpu time spent up to now is       23.8 secs

     total energy              =    -117.92715786 Ry
     estimated scf accuracy    <          1.0E-09 Ry

     iteration # 10     ecut=    70.00 Ry     beta= 0.40
     Davidson diagonalization with overlap
     ethr =  3.86E-12,  avg # of iterations =  2.0
     ethr =  3.86E-12,  avg # of iterations =  2.0
     ethr =  3.86E-12,  avg # of iterations =  2.0
     ethr =  3.86E-12,  avg # of iterations =  2.0

     total cpu time spent up to now is       24.6 secs

     total energy              =    -117.92715786 Ry
     estimated scf accuracy    <          1.8E-10 Ry

     iteration # 11     ecut=    70.00 Ry     beta= 0.40
     Davidson diagonalization with overlap

     total cpu time spent up to now is       24.6 secs

     total energy              =    -117.92715786 Ry
     estimated scf accuracy    <          1.8E-10 Ry

     iteration # 11     ecut=    70.00 Ry     beta= 0.40
     Davidson diagonalization with overlap
     ethr =  3.86E-12,  avg # of iterations =  2.0

     total cpu time spent up to now is       24.7 secs

     total energy              =    -117.92715786 Ry
     estimated scf accuracy    <          1.8E-10 Ry

     iteration # 11     ecut=    70.00 Ry     beta= 0.40
     Davidson diagonalization with overlap

     total cpu time spent up to now is       24.7 secs

     total energy              =    -117.92715786 Ry
     estimated scf accuracy    <          1.8E-10 Ry

     iteration # 11     ecut=    70.00 Ry     beta= 0.40
     Davidson diagonalization with overlap

     total cpu time spent up to now is       25.1 secs

     total energy              =    -117.92715786 Ry
     estimated scf accuracy    <          1.8E-10 Ry

     iteration # 11     ecut=    70.00 Ry     beta= 0.40
     Davidson diagonalization with overlap
     ethr =  3.86E-12,  avg # of iterations =  2.0

     total cpu time spent up to now is       25.8 secs

     total energy              =    -117.92715786 Ry
     estimated scf accuracy    <          1.8E-10 Ry

     iteration # 11     ecut=    70.00 Ry     beta= 0.40
     Davidson diagonalization with overlap
     ethr =  1.38E-12,  avg # of iterations =  2.1
     ethr =  1.38E-12,  avg # of iterations =  2.1
     ethr =  1.38E-12,  avg # of iterations =  2.1
     ethr =  1.38E-12,  avg # of iterations =  2.1

     total cpu time spent up to now is       26.7 secs

     End of self-consistent calculation

     Number of k-points >= 100: set verbosity='high' to print the bands.

     the Fermi energy is    16.0344 ev

!    total energy              =    -117.92715786 Ry
     estimated scf accuracy    <          5.1E-12 Ry
     smearing contrib. (-TS)   =       0.00012597 Ry
     internal energy E=F+TS    =    -117.92728383 Ry

     The total energy is F=E-TS. E is the sum of the following terms:
     one-electron contribution =     -20.38510468 Ry
     hartree contribution      =      16.15000688 Ry
     xc contribution           =     -18.33862743 Ry
     ewald contribution        =     -95.35355860 Ry

     convergence has been achieved in  11 iterations

     Writing all to output data dir ./tmp/Nb_eos_6.45.save/

     total cpu time spent up to now is       26.7 secs

     End of self-consistent calculation

     Number of k-points >= 100: set verbosity='high' to print the bands.

     the Fermi energy is    16.0344 ev

!    total energy              =    -117.92715786 Ry
     estimated scf accuracy    <          5.1E-12 Ry
     smearing contrib. (-TS)   =       0.00012597 Ry
     internal energy E=F+TS    =    -117.92728383 Ry

     The total energy is F=E-TS. E is the sum of the following terms:
     one-electron contribution =     -20.38510468 Ry
     hartree contribution      =      16.15000688 Ry
     xc contribution           =     -18.33862743 Ry
     ewald contribution        =     -95.35355860 Ry

     convergence has been achieved in  11 iterations

     Writing all to output data dir ./tmp/Nb_eos_6.45.save/

     init_run     :      1.04s CPU      1.09s WALL (       1 calls)
     electrons    :     24.24s CPU     25.52s WALL (       1 calls)

     Called by init_run:
     wfcinit      :      0.81s CPU      0.83s WALL (       1 calls)
     potinit      :      0.02s CPU      0.03s WALL (       1 calls)
     hinit0       :      0.16s CPU      0.17s WALL (       1 calls)

     Called by electrons:
     c_bands      :     19.45s CPU     20.31s WALL (      12 calls)
     sum_band     :      4.31s CPU      4.58s WALL (      12 calls)
     v_of_rho     :      0.22s CPU      0.27s WALL (      12 calls)
     newd         :      0.27s CPU      0.36s WALL (      12 calls)
     mix_rho      :      0.02s CPU      0.03s WALL (      12 calls)

     Called by c_bands:
     init_us_2    :      0.52s CPU      0.55s WALL (    3625 calls)
     init_us_2:cp :      0.52s CPU      0.55s WALL (    3625 calls)
     cegterg      :     18.65s CPU     19.48s WALL (    1740 calls)

     Called by *egterg:
     cdiaghg      :      0.35s CPU      0.37s WALL (    5590 calls)
     h_psi        :     16.85s CPU     17.51s WALL (    5880 calls)
     s_psi        :      0.34s CPU      0.35s WALL (    5880 calls)
     g_psi        :      0.05s CPU      0.06s WALL (    3995 calls)

     Called by h_psi:
     h_psi:calbec :      0.39s CPU      0.41s WALL (    5880 calls)
     vloc_psi     :     16.07s CPU     16.69s WALL (    5880 calls)
     add_vuspsi   :      0.34s CPU      0.35s WALL (    5880 calls)

     General routines
     calbec       :      0.54s CPU      0.56s WALL (    7620 calls)
     fft          :      0.12s CPU      0.13s WALL (     155 calls)
     ffts         :      0.01s CPU      0.01s WALL (      24 calls)
     fftw         :     16.43s CPU     17.08s WALL (  113448 calls)
     interpolate  :      0.01s CPU      0.02s WALL (      12 calls)


     PWSCF        :     25.35s CPU     26.74s WALL


   This run was terminated on:  23:17:55   6Mar2026            

=------------------------------------------------------------------------------=
   JOB DONE.
=------------------------------------------------------------------------------=
Note: The following floating-point exceptions are signalling: IEEE_INVALID_FLAG IEEE_DIVIDE_BY_ZERO IEEE_UNDERFLOW_FLAG
     ethr =  1.38E-12,  avg # of iterations =  2.1

     init_run     :      1.19s CPU      1.26s WALL (       1 calls)
     electrons    :     24.08s CPU     25.34s WALL (       1 calls)

     Called by init_run:
     wfcinit      :      0.94s CPU      0.99s WALL (       1 calls)
     potinit      :      0.02s CPU      0.03s WALL (       1 calls)
     hinit0       :      0.17s CPU      0.17s WALL (       1 calls)

     Called by electrons:
     c_bands      :     19.29s CPU     20.18s WALL (      12 calls)
     sum_band     :      4.32s CPU      4.61s WALL (      12 calls)
     v_of_rho     :      0.21s CPU      0.23s WALL (      12 calls)
     newd         :      0.27s CPU      0.35s WALL (      12 calls)
     mix_rho      :      0.02s CPU      0.02s WALL (      12 calls)

     Called by c_bands:
     init_us_2    :      0.52s CPU      0.55s WALL (    3625 calls)
     init_us_2:cp :      0.52s CPU      0.54s WALL (    3625 calls)
     cegterg      :     18.50s CPU     19.35s WALL (    1740 calls)

     Called by *egterg:
     cdiaghg      :      0.35s CPU      0.36s WALL (    5590 calls)
     h_psi        :     16.84s CPU     17.56s WALL (    5880 calls)
     s_psi        :      0.34s CPU      0.35s WALL (    5880 calls)
     g_psi        :      0.05s CPU      0.05s WALL (    3995 calls)

     Called by h_psi:
     h_psi:calbec :      0.39s CPU      0.41s WALL (    5880 calls)
     vloc_psi     :     16.07s CPU     16.75s WALL (    5880 calls)
     add_vuspsi   :      0.34s CPU      0.35s WALL (    5880 calls)

     General routines
     calbec       :      0.54s CPU      0.56s WALL (    7620 calls)
     fft          :      0.11s CPU      0.11s WALL (     155 calls)
     ffts         :      0.01s CPU      0.01s WALL (      24 calls)
     fftw         :     16.42s CPU     17.14s WALL (  113448 calls)
     interpolate  :      0.01s CPU      0.02s WALL (      12 calls)


     PWSCF        :     25.34s CPU     26.75s WALL


   This run was terminated on:  23:17:55   6Mar2026            

=------------------------------------------------------------------------------=
   JOB DONE.
=------------------------------------------------------------------------------=
Note: The following floating-point exceptions are signalling: IEEE_INVALID_FLAG IEEE_DIVIDE_BY_ZERO IEEE_UNDERFLOW_FLAG

     total cpu time spent up to now is       26.9 secs

     End of self-consistent calculation

     Number of k-points >= 100: set verbosity='high' to print the bands.

     the Fermi energy is    16.0344 ev

!    total energy              =    -117.92715786 Ry
     estimated scf accuracy    <          5.1E-12 Ry
     smearing contrib. (-TS)   =       0.00012597 Ry
     internal energy E=F+TS    =    -117.92728383 Ry

     The total energy is F=E-TS. E is the sum of the following terms:
     one-electron contribution =     -20.38510468 Ry
     hartree contribution      =      16.15000688 Ry
     xc contribution           =     -18.33862743 Ry
     ewald contribution        =     -95.35355860 Ry

     convergence has been achieved in  11 iterations

     Writing all to output data dir ./tmp/Nb_eos_6.45.save/

     init_run     :      1.11s CPU      1.15s WALL (       1 calls)
     electrons    :     24.53s CPU     25.71s WALL (       1 calls)

     Called by init_run:
     wfcinit      :      0.84s CPU      0.85s WALL (       1 calls)
     potinit      :      0.03s CPU      0.03s WALL (       1 calls)
     hinit0       :      0.19s CPU      0.19s WALL (       1 calls)

     Called by electrons:
     c_bands      :     19.61s CPU     20.44s WALL (      12 calls)
     sum_band     :      4.43s CPU      4.70s WALL (      12 calls)
     v_of_rho     :      0.22s CPU      0.25s WALL (      12 calls)
     newd         :      0.28s CPU      0.36s WALL (      12 calls)
     mix_rho      :      0.02s CPU      0.02s WALL (      12 calls)

     Called by c_bands:
     init_us_2    :      0.53s CPU      0.55s WALL (    3625 calls)
     init_us_2:cp :      0.53s CPU      0.55s WALL (    3625 calls)
     cegterg      :     18.80s CPU     19.59s WALL (    1740 calls)

     Called by *egterg:
     cdiaghg      :      0.35s CPU      0.36s WALL (    5590 calls)
     h_psi        :     17.01s CPU     17.63s WALL (    5880 calls)
     s_psi        :      0.34s CPU      0.35s WALL (    5880 calls)
     g_psi        :      0.05s CPU      0.06s WALL (    3995 calls)

     Called by h_psi:
     h_psi:calbec :      0.39s CPU      0.41s WALL (    5880 calls)
     vloc_psi     :     16.23s CPU     16.81s WALL (    5880 calls)
     add_vuspsi   :      0.34s CPU      0.36s WALL (    5880 calls)

     General routines
     calbec       :      0.55s CPU      0.57s WALL (    7620 calls)
     fft          :      0.12s CPU      0.12s WALL (     155 calls)
     ffts         :      0.01s CPU      0.01s WALL (      24 calls)
     fftw         :     16.66s CPU     17.27s WALL (  113448 calls)
     interpolate  :      0.01s CPU      0.02s WALL (      12 calls)


     PWSCF        :     25.71s CPU     26.96s WALL


   This run was terminated on:  23:17:55   6Mar2026            

=------------------------------------------------------------------------------=
   JOB DONE.
=------------------------------------------------------------------------------=
Note: The following floating-point exceptions are signalling: IEEE_INVALID_FLAG IEEE_DIVIDE_BY_ZERO IEEE_UNDERFLOW_FLAG

     total cpu time spent up to now is       27.0 secs

     End of self-consistent calculation

     Number of k-points >= 100: set verbosity='high' to print the bands.

     the Fermi energy is    16.0344 ev

!    total energy              =    -117.92715786 Ry
     estimated scf accuracy    <          5.1E-12 Ry
     smearing contrib. (-TS)   =       0.00012597 Ry
     internal energy E=F+TS    =    -117.92728383 Ry

     The total energy is F=E-TS. E is the sum of the following terms:
     one-electron contribution =     -20.38510468 Ry
     hartree contribution      =      16.15000688 Ry
     xc contribution           =     -18.33862743 Ry
     ewald contribution        =     -95.35355860 Ry

     convergence has been achieved in  11 iterations

     Writing all to output data dir ./tmp/Nb_eos_6.45.save/

     init_run     :      1.05s CPU      1.10s WALL (       1 calls)
     electrons    :     24.71s CPU     25.88s WALL (       1 calls)

     Called by init_run:
     wfcinit      :      0.81s CPU      0.85s WALL (       1 calls)
     potinit      :      0.02s CPU      0.02s WALL (       1 calls)
     hinit0       :      0.17s CPU      0.17s WALL (       1 calls)

     Called by electrons:
     c_bands      :     19.87s CPU     20.76s WALL (      12 calls)
     sum_band     :      4.35s CPU      4.53s WALL (      12 calls)
     v_of_rho     :      0.22s CPU      0.24s WALL (      12 calls)
     newd         :      0.28s CPU      0.35s WALL (      12 calls)
     mix_rho      :      0.02s CPU      0.03s WALL (      12 calls)

     Called by c_bands:
     init_us_2    :      0.53s CPU      0.55s WALL (    3625 calls)
     init_us_2:cp :      0.53s CPU      0.55s WALL (    3625 calls)
     cegterg      :     19.05s CPU     19.91s WALL (    1740 calls)

     Called by *egterg:
     cdiaghg      :      0.36s CPU      0.37s WALL (    5590 calls)
     h_psi        :     17.19s CPU     17.89s WALL (    5880 calls)
     s_psi        :      0.35s CPU      0.36s WALL (    5880 calls)
     g_psi        :      0.05s CPU      0.06s WALL (    3995 calls)

     Called by h_psi:
     h_psi:calbec :      0.40s CPU      0.42s WALL (    5880 calls)
     vloc_psi     :     16.39s CPU     17.04s WALL (    5880 calls)
     add_vuspsi   :      0.35s CPU      0.37s WALL (    5880 calls)

     General routines
     calbec       :      0.55s CPU      0.57s WALL (    7620 calls)
     fft          :      0.12s CPU      0.12s WALL (     155 calls)
     ffts         :      0.01s CPU      0.01s WALL (      24 calls)
     fftw         :     16.73s CPU     17.34s WALL (  113448 calls)
     interpolate  :      0.02s CPU      0.02s WALL (      12 calls)


     PWSCF        :     25.83s CPU     27.09s WALL


   This run was terminated on:  23:17:55   6Mar2026            

=------------------------------------------------------------------------------=
   JOB DONE.
=------------------------------------------------------------------------------=
Note: The following floating-point exceptions are signalling: IEEE_INVALID_FLAG IEEE_DIVIDE_BY_ZERO IEEE_UNDERFLOW_FLAG

     total cpu time spent up to now is       27.1 secs

     End of self-consistent calculation

     Number of k-points >= 100: set verbosity='high' to print the bands.

     the Fermi energy is    16.0344 ev

!    total energy              =    -117.92715786 Ry
     estimated scf accuracy    <          5.1E-12 Ry
     smearing contrib. (-TS)   =       0.00012597 Ry
     internal energy E=F+TS    =    -117.92728383 Ry

     The total energy is F=E-TS. E is the sum of the following terms:
     one-electron contribution =     -20.38510468 Ry
     hartree contribution      =      16.15000688 Ry
     xc contribution           =     -18.33862743 Ry
     ewald contribution        =     -95.35355860 Ry

     convergence has been achieved in  11 iterations

     Writing all to output data dir ./tmp/Nb_eos_6.45.save/

     init_run     :      1.15s CPU      1.20s WALL (       1 calls)
     electrons    :     24.49s CPU     25.90s WALL (       1 calls)

     Called by init_run:
     wfcinit      :      0.89s CPU      0.92s WALL (       1 calls)
     potinit      :      0.02s CPU      0.03s WALL (       1 calls)
     hinit0       :      0.18s CPU      0.19s WALL (       1 calls)

     Called by electrons:
     c_bands      :     19.72s CPU     20.69s WALL (      12 calls)
     sum_band     :      4.28s CPU      4.60s WALL (      12 calls)
     v_of_rho     :      0.22s CPU      0.25s WALL (      12 calls)
     newd         :      0.28s CPU      0.37s WALL (      12 calls)
     mix_rho      :      0.02s CPU      0.03s WALL (      12 calls)

     Called by c_bands:
     init_us_2    :      0.53s CPU      0.55s WALL (    3625 calls)
     init_us_2:cp :      0.53s CPU      0.55s WALL (    3625 calls)
     cegterg      :     18.90s CPU     19.83s WALL (    1740 calls)

     Called by *egterg:
     cdiaghg      :      0.36s CPU      0.37s WALL (    5590 calls)
     h_psi        :     17.14s CPU     17.88s WALL (    5880 calls)
     s_psi        :      0.34s CPU      0.36s WALL (    5880 calls)
     g_psi        :      0.05s CPU      0.06s WALL (    3995 calls)

     Called by h_psi:
     h_psi:calbec :      0.40s CPU      0.42s WALL (    5880 calls)
     vloc_psi     :     16.35s CPU     17.05s WALL (    5880 calls)
     add_vuspsi   :      0.35s CPU      0.36s WALL (    5880 calls)

     General routines
     calbec       :      0.55s CPU      0.57s WALL (    7620 calls)
     fft          :      0.12s CPU      0.12s WALL (     155 calls)
     ffts         :      0.01s CPU      0.01s WALL (      24 calls)
     fftw         :     16.65s CPU     17.38s WALL (  113448 calls)
     interpolate  :      0.02s CPU      0.02s WALL (      12 calls)


     PWSCF        :     25.70s CPU     27.21s WALL


   This run was terminated on:  23:17:55   6Mar2026            

=------------------------------------------------------------------------------=
   JOB DONE.
=------------------------------------------------------------------------------=
Note: The following floating-point exceptions are signalling: IEEE_INVALID_FLAG IEEE_DIVIDE_BY_ZERO IEEE_UNDERFLOW_FLAG
     ethr =  1.38E-12,  avg # of iterations =  2.1

     total cpu time spent up to now is       27.8 secs

     End of self-consistent calculation

     Number of k-points >= 100: set verbosity='high' to print the bands.

     the Fermi energy is    16.0344 ev

!    total energy              =    -117.92715786 Ry
     estimated scf accuracy    <          5.1E-12 Ry
     smearing contrib. (-TS)   =       0.00012597 Ry
     internal energy E=F+TS    =    -117.92728383 Ry

     The total energy is F=E-TS. E is the sum of the following terms:
     one-electron contribution =     -20.38510468 Ry
     hartree contribution      =      16.15000688 Ry
     xc contribution           =     -18.33862743 Ry
     ewald contribution        =     -95.35355860 Ry

     convergence has been achieved in  11 iterations

     Writing all to output data dir ./tmp/Nb_eos_6.45.save/

     init_run     :      1.19s CPU      1.27s WALL (       1 calls)
     electrons    :     25.10s CPU     26.43s WALL (       1 calls)

     Called by init_run:
     wfcinit      :      0.95s CPU      1.00s WALL (       1 calls)
     potinit      :      0.03s CPU      0.03s WALL (       1 calls)
     hinit0       :      0.16s CPU      0.17s WALL (       1 calls)

     Called by electrons:
     c_bands      :     20.15s CPU     21.14s WALL (      12 calls)
     sum_band     :      4.46s CPU      4.71s WALL (      12 calls)
     v_of_rho     :      0.23s CPU      0.24s WALL (      12 calls)
     newd         :      0.28s CPU      0.36s WALL (      12 calls)
     mix_rho      :      0.02s CPU      0.02s WALL (      12 calls)

     Called by c_bands:
     init_us_2    :      0.54s CPU      0.57s WALL (    3625 calls)
     init_us_2:cp :      0.54s CPU      0.56s WALL (    3625 calls)
     cegterg      :     19.33s CPU     20.28s WALL (    1740 calls)

     Called by *egterg:
     cdiaghg      :      0.36s CPU      0.38s WALL (    5590 calls)
     h_psi        :     17.55s CPU     18.34s WALL (    5880 calls)
     s_psi        :      0.35s CPU      0.37s WALL (    5880 calls)
     g_psi        :      0.06s CPU      0.06s WALL (    3995 calls)

     Called by h_psi:
     h_psi:calbec :      0.41s CPU      0.43s WALL (    5880 calls)
     vloc_psi     :     16.74s CPU     17.48s WALL (    5880 calls)
     add_vuspsi   :      0.36s CPU      0.38s WALL (    5880 calls)

     General routines
     calbec       :      0.56s CPU      0.59s WALL (    7620 calls)
     fft          :      0.12s CPU      0.12s WALL (     155 calls)
     ffts         :      0.01s CPU      0.01s WALL (      24 calls)
     fftw         :     17.13s CPU     17.87s WALL (  113448 calls)
     interpolate  :      0.02s CPU      0.02s WALL (      12 calls)


     PWSCF        :     26.36s CPU     27.80s WALL


   This run was terminated on:  23:17:56   6Mar2026            

=------------------------------------------------------------------------------=
   JOB DONE.
=------------------------------------------------------------------------------=
Note: The following floating-point exceptions are signalling: IEEE_INVALID_FLAG IEEE_DIVIDE_BY_ZERO IEEE_UNDERFLOW_FLAG
