
     Program PWSCF v.7.2 starts on  6Mar2026 at 23:16:33 

     This program is part of the open-source Quantum ESPRESSO suite
     for quantum simulation of materials; please cite
         "P. Giannozzi et al., J. Phys.:Condens. Matter 21 395502 (2009);
         "P. Giannozzi et al., J. Phys.:Condens. Matter 29 465901 (2017);
         "P. Giannozzi et al., J. Chem. Phys. 152 154105 (2020);
          URL http://www.quantum-espresso.org", 
     in publications or presentations arising from this work. More details at
     http://www.quantum-espresso.org/quote

     Serial multi-threaded version, running on    1 processor cores
     0 MiB available memory on the printing compute node when the environment starts


     Program PWSCF v.7.2 starts on  6Mar2026 at 23:16:33 

     This program is part of the open-source Quantum ESPRESSO suite
     for quantum simulation of materials; please cite
         "P. Giannozzi et al., J. Phys.:Condens. Matter 21 395502 (2009);
         "P. Giannozzi et al., J. Phys.:Condens. Matter 29 465901 (2017);
         "P. Giannozzi et al., J. Chem. Phys. 152 154105 (2020);
          URL http://www.quantum-espresso.org", 
     in publications or presentations arising from this work. More details at
     http://www.quantum-espresso.org/quote

     Serial multi-threaded version, running on    1 processor cores
     0 MiB available memory on the printing compute node when the environment starts

     Reading input from results/eos/Nb_eos_6.35.in
     Reading input from results/eos/Nb_eos_6.35.in

     Program PWSCF v.7.2 starts on  6Mar2026 at 23:16:33 

     This program is part of the open-source Quantum ESPRESSO suite
     for quantum simulation of materials; please cite
         "P. Giannozzi et al., J. Phys.:Condens. Matter 21 395502 (2009);
         "P. Giannozzi et al., J. Phys.:Condens. Matter 29 465901 (2017);
         "P. Giannozzi et al., J. Chem. Phys. 152 154105 (2020);
          URL http://www.quantum-espresso.org", 
     in publications or presentations arising from this work. More details at
     http://www.quantum-espresso.org/quote

     Serial multi-threaded version, running on    1 processor cores
     0 MiB available memory on the printing compute node when the environment starts

     Reading input from results/eos/Nb_eos_6.35.in

     Program PWSCF v.7.2 starts on  6Mar2026 at 23:16:33 

     This program is part of the open-source Quantum ESPRESSO suite
     for quantum simulation of materials; please cite
         "P. Giannozzi et al., J. Phys.:Condens. Matter 21 395502 (2009);
         "P. Giannozzi et al., J. Phys.:Condens. Matter 29 465901 (2017);
         "P. Giannozzi et al., J. Chem. Phys. 152 154105 (2020);
          URL http://www.quantum-espresso.org", 
     in publications or presentations arising from this work. More details at
     http://www.quantum-espresso.org/quote

     Serial multi-threaded version, running on    1 processor cores
     0 MiB available memory on the printing compute node when the environment starts


     Program PWSCF v.7.2 starts on  6Mar2026 at 23:16:33 

     This program is part of the open-source Quantum ESPRESSO suite
     for quantum simulation of materials; please cite
         "P. Giannozzi et al., J. Phys.:Condens. Matter 21 395502 (2009);
         "P. Giannozzi et al., J. Phys.:Condens. Matter 29 465901 (2017);
         "P. Giannozzi et al., J. Chem. Phys. 152 154105 (2020);
          URL http://www.quantum-espresso.org", 
     in publications or presentations arising from this work. More details at
     http://www.quantum-espresso.org/quote

     Serial multi-threaded version, running on    1 processor cores
     0 MiB available memory on the printing compute node when the environment starts

     Reading input from results/eos/Nb_eos_6.35.in

     Program PWSCF v.7.2 starts on  6Mar2026 at 23:16:33 

     This program is part of the open-source Quantum ESPRESSO suite
     for quantum simulation of materials; please cite
         "P. Giannozzi et al., J. Phys.:Condens. Matter 21 395502 (2009);
         "P. Giannozzi et al., J. Phys.:Condens. Matter 29 465901 (2017);
         "P. Giannozzi et al., J. Chem. Phys. 152 154105 (2020);
          URL http://www.quantum-espresso.org", 
     in publications or presentations arising from this work. More details at
     http://www.quantum-espresso.org/quote

     Serial multi-threaded version, running on    1 processor cores
     0 MiB available memory on the printing compute node when the environment starts

     Reading input from results/eos/Nb_eos_6.35.in
     Reading input from results/eos/Nb_eos_6.35.in

     Current dimensions of program PWSCF are:
     Max number of different atomic species (ntypx) = 10
     Max number of k-points (npk) =  40000
     Max angular momentum in pseudopotentials (lmaxx) =  4

     Current dimensions of program PWSCF are:
     Max number of different atomic species (ntypx) = 10
     Max number of k-points (npk) =  40000
     Max angular momentum in pseudopotentials (lmaxx) =  4

     Current dimensions of program PWSCF are:
     Max number of different atomic species (ntypx) = 10
     Max number of k-points (npk) =  40000
     Max angular momentum in pseudopotentials (lmaxx) =  4

     Current dimensions of program PWSCF are:
     Max number of different atomic species (ntypx) = 10
     Max number of k-points (npk) =  40000
     Max angular momentum in pseudopotentials (lmaxx) =  4

     Current dimensions of program PWSCF are:
     Max number of different atomic species (ntypx) = 10
     Max number of k-points (npk) =  40000
     Max angular momentum in pseudopotentials (lmaxx) =  4

     Current dimensions of program PWSCF are:
     Max number of different atomic species (ntypx) = 10
     Max number of k-points (npk) =  40000
     Max angular momentum in pseudopotentials (lmaxx) =  4


     G-vector sticks info
     --------------------
     sticks:   dense  smooth     PW     G-vecs:    dense   smooth      PW
     Sum        1267     627    201                28675    10005    1745

     Using Slab Decomposition



     bravais-lattice index     =            3
     lattice parameter (alat)  =       6.3500  a.u.
     unit-cell volume          =     128.0239 (a.u.)^3
     number of atoms/cell      =            1
     number of atomic types    =            1
     number of electrons       =        13.00
     number of Kohn-Sham states=           11
     kinetic-energy cutoff     =      70.0000  Ry
     charge density cutoff     =     560.0000  Ry
     scf convergence threshold =      1.0E-10
     mixing beta               =       0.4000
     number of iterations used =            8  plain     mixing
     Exchange-correlation= SLA  PW   PBE  PBE
                           (   1   4   3   4   0   0   0)

     celldm(1)=   6.350000  celldm(2)=   0.000000  celldm(3)=   0.000000
     celldm(4)=   0.000000  celldm(5)=   0.000000  celldm(6)=   0.000000

     crystal axes: (cart. coord. in units of alat)
               a(1) = (   0.500000   0.500000   0.500000 )  
               a(2) = (  -0.500000   0.500000   0.500000 )  
               a(3) = (  -0.500000  -0.500000   0.500000 )  

     reciprocal axes: (cart. coord. in units 2 pi/alat)
               b(1) = (  1.000000  0.000000  1.000000 )  
               b(2) = ( -1.000000  1.000000  0.000000 )  
               b(3) = (  0.000000 -1.000000  1.000000 )  


     PseudoPot. # 1 for Nb read from file:
     ./pseudo/nb_pbe_v1.uspp.F.UPF
     MD5 check sum: 573aab8a2fa660278ed4a62cd769473f
     Pseudo is Ultrasoft + core correction, Zval = 13.0
     Generated by new atomic code, or converted to UPF format
     Using radial grid of  887 points,  6 beta functions with: 
                l(1) =   0
                l(2) =   0
                l(3) =   1
                l(4) =   1
                l(5) =   2
                l(6) =   2
     Q(r) pseudized with  6 coefficients,  rinner =    1.000   1.000   1.000
                                                       1.000   1.000

     atomic species   valence    mass     pseudopotential
        Nb            13.00    92.90600     Nb( 1.00)

     48 Sym. Ops., with inversion, found



   Cartesian axes

     site n.     atom                  positions (alat units)
         1           Nb  tau(   1) = (   0.0000000   0.0000000   0.0000000  )

     number of k points=   145  Marzari-Vanderbilt smearing, width (Ry)=  0.0300

     Number of k-points >= 100: set verbosity='high' to print them.

     Dense  grid:    28675 G-vectors     FFT dimensions: (  45,  45,  45)

     Smooth grid:    10005 G-vectors     FFT dimensions: (  30,  30,  30)

     Estimated max dynamical RAM per process >     133.13 MB


     G-vector sticks info
     --------------------
     sticks:   dense  smooth     PW     G-vecs:    dense   smooth      PW
     Sum        1267     627    201                28675    10005    1745

     Using Slab Decomposition



     bravais-lattice index     =            3
     lattice parameter (alat)  =       6.3500  a.u.
     unit-cell volume          =     128.0239 (a.u.)^3
     number of atoms/cell      =            1
     number of atomic types    =            1
     number of electrons       =        13.00
     number of Kohn-Sham states=           11
     kinetic-energy cutoff     =      70.0000  Ry
     charge density cutoff     =     560.0000  Ry
     scf convergence threshold =      1.0E-10
     mixing beta               =       0.4000
     number of iterations used =            8  plain     mixing
     Exchange-correlation= SLA  PW   PBE  PBE
                           (   1   4   3   4   0   0   0)

     celldm(1)=   6.350000  celldm(2)=   0.000000  celldm(3)=   0.000000
     celldm(4)=   0.000000  celldm(5)=   0.000000  celldm(6)=   0.000000

     crystal axes: (cart. coord. in units of alat)
               a(1) = (   0.500000   0.500000   0.500000 )  
               a(2) = (  -0.500000   0.500000   0.500000 )  
               a(3) = (  -0.500000  -0.500000   0.500000 )  

     reciprocal axes: (cart. coord. in units 2 pi/alat)
               b(1) = (  1.000000  0.000000  1.000000 )  
               b(2) = ( -1.000000  1.000000  0.000000 )  
               b(3) = (  0.000000 -1.000000  1.000000 )  


     PseudoPot. # 1 for Nb read from file:
     ./pseudo/nb_pbe_v1.uspp.F.UPF
     MD5 check sum: 573aab8a2fa660278ed4a62cd769473f
     Pseudo is Ultrasoft + core correction, Zval = 13.0
     Generated by new atomic code, or converted to UPF format
     Using radial grid of  887 points,  6 beta functions with: 
                l(1) =   0
                l(2) =   0
                l(3) =   1
                l(4) =   1
                l(5) =   2
                l(6) =   2
     Q(r) pseudized with  6 coefficients,  rinner =    1.000   1.000   1.000
                                                       1.000   1.000

     atomic species   valence    mass     pseudopotential
        Nb            13.00    92.90600     Nb( 1.00)

     48 Sym. Ops., with inversion, found



   Cartesian axes

     site n.     atom                  positions (alat units)
         1           Nb  tau(   1) = (   0.0000000   0.0000000   0.0000000  )

     number of k points=   145  Marzari-Vanderbilt smearing, width (Ry)=  0.0300

     Number of k-points >= 100: set verbosity='high' to print them.

     Dense  grid:    28675 G-vectors     FFT dimensions: (  45,  45,  45)

     Smooth grid:    10005 G-vectors     FFT dimensions: (  30,  30,  30)

     Estimated max dynamical RAM per process >     133.13 MB


     G-vector sticks info
     --------------------
     sticks:   dense  smooth     PW     G-vecs:    dense   smooth      PW
     Sum        1267     627    201                28675    10005    1745

     Using Slab Decomposition



     bravais-lattice index     =            3
     lattice parameter (alat)  =       6.3500  a.u.
     unit-cell volume          =     128.0239 (a.u.)^3
     number of atoms/cell      =            1
     number of atomic types    =            1
     number of electrons       =        13.00
     number of Kohn-Sham states=           11
     kinetic-energy cutoff     =      70.0000  Ry
     charge density cutoff     =     560.0000  Ry
     scf convergence threshold =      1.0E-10
     mixing beta               =       0.4000
     number of iterations used =            8  plain     mixing
     Exchange-correlation= SLA  PW   PBE  PBE
                           (   1   4   3   4   0   0   0)

     celldm(1)=   6.350000  celldm(2)=   0.000000  celldm(3)=   0.000000
     celldm(4)=   0.000000  celldm(5)=   0.000000  celldm(6)=   0.000000

     crystal axes: (cart. coord. in units of alat)
               a(1) = (   0.500000   0.500000   0.500000 )  
               a(2) = (  -0.500000   0.500000   0.500000 )  
               a(3) = (  -0.500000  -0.500000   0.500000 )  

     reciprocal axes: (cart. coord. in units 2 pi/alat)
               b(1) = (  1.000000  0.000000  1.000000 )  
               b(2) = ( -1.000000  1.000000  0.000000 )  
               b(3) = (  0.000000 -1.000000  1.000000 )  


     PseudoPot. # 1 for Nb read from file:
     ./pseudo/nb_pbe_v1.uspp.F.UPF
     MD5 check sum: 573aab8a2fa660278ed4a62cd769473f
     Pseudo is Ultrasoft + core correction, Zval = 13.0
     Generated by new atomic code, or converted to UPF format
     Using radial grid of  887 points,  6 beta functions with: 
                l(1) =   0
                l(2) =   0
                l(3) =   1
                l(4) =   1
                l(5) =   2
                l(6) =   2
     Q(r) pseudized with  6 coefficients,  rinner =    1.000   1.000   1.000
                                                       1.000   1.000

     atomic species   valence    mass     pseudopotential
        Nb            13.00    92.90600     Nb( 1.00)

     48 Sym. Ops., with inversion, found



   Cartesian axes

     site n.     atom                  positions (alat units)
         1           Nb  tau(   1) = (   0.0000000   0.0000000   0.0000000  )

     number of k points=   145  Marzari-Vanderbilt smearing, width (Ry)=  0.0300

     Number of k-points >= 100: set verbosity='high' to print them.

     Dense  grid:    28675 G-vectors     FFT dimensions: (  45,  45,  45)

     Smooth grid:    10005 G-vectors     FFT dimensions: (  30,  30,  30)

     Estimated max dynamical RAM per process >     133.13 MB


     G-vector sticks info
     --------------------
     sticks:   dense  smooth     PW     G-vecs:    dense   smooth      PW
     Sum        1267     627    201                28675    10005    1745

     Using Slab Decomposition



     bravais-lattice index     =            3
     lattice parameter (alat)  =       6.3500  a.u.
     unit-cell volume          =     128.0239 (a.u.)^3
     number of atoms/cell      =            1
     number of atomic types    =            1
     number of electrons       =        13.00
     number of Kohn-Sham states=           11
     kinetic-energy cutoff     =      70.0000  Ry
     charge density cutoff     =     560.0000  Ry
     scf convergence threshold =      1.0E-10
     mixing beta               =       0.4000
     number of iterations used =            8  plain     mixing
     Exchange-correlation= SLA  PW   PBE  PBE
                           (   1   4   3   4   0   0   0)

     celldm(1)=   6.350000  celldm(2)=   0.000000  celldm(3)=   0.000000
     celldm(4)=   0.000000  celldm(5)=   0.000000  celldm(6)=   0.000000

     crystal axes: (cart. coord. in units of alat)
               a(1) = (   0.500000   0.500000   0.500000 )  
               a(2) = (  -0.500000   0.500000   0.500000 )  
               a(3) = (  -0.500000  -0.500000   0.500000 )  

     reciprocal axes: (cart. coord. in units 2 pi/alat)
               b(1) = (  1.000000  0.000000  1.000000 )  
               b(2) = ( -1.000000  1.000000  0.000000 )  
               b(3) = (  0.000000 -1.000000  1.000000 )  


     PseudoPot. # 1 for Nb read from file:
     ./pseudo/nb_pbe_v1.uspp.F.UPF
     MD5 check sum: 573aab8a2fa660278ed4a62cd769473f
     Pseudo is Ultrasoft + core correction, Zval = 13.0
     Generated by new atomic code, or converted to UPF format
     Using radial grid of  887 points,  6 beta functions with: 
                l(1) =   0
                l(2) =   0
                l(3) =   1
                l(4) =   1
                l(5) =   2
                l(6) =   2
     Q(r) pseudized with  6 coefficients,  rinner =    1.000   1.000   1.000
                                                       1.000   1.000

     atomic species   valence    mass     pseudopotential
        Nb            13.00    92.90600     Nb( 1.00)

     48 Sym. Ops., with inversion, found



   Cartesian axes

     site n.     atom                  positions (alat units)
         1           Nb  tau(   1) = (   0.0000000   0.0000000   0.0000000  )

     number of k points=   145  Marzari-Vanderbilt smearing, width (Ry)=  0.0300

     Number of k-points >= 100: set verbosity='high' to print them.

     Dense  grid:    28675 G-vectors     FFT dimensions: (  45,  45,  45)

     Smooth grid:    10005 G-vectors     FFT dimensions: (  30,  30,  30)

     Estimated max dynamical RAM per process >     133.13 MB


     G-vector sticks info
     --------------------
     sticks:   dense  smooth     PW     G-vecs:    dense   smooth      PW
     Sum        1267     627    201                28675    10005    1745

     Using Slab Decomposition



     bravais-lattice index     =            3
     lattice parameter (alat)  =       6.3500  a.u.
     unit-cell volume          =     128.0239 (a.u.)^3
     number of atoms/cell      =            1
     number of atomic types    =            1
     number of electrons       =        13.00
     number of Kohn-Sham states=           11
     kinetic-energy cutoff     =      70.0000  Ry
     charge density cutoff     =     560.0000  Ry
     scf convergence threshold =      1.0E-10
     mixing beta               =       0.4000
     number of iterations used =            8  plain     mixing
     Exchange-correlation= SLA  PW   PBE  PBE
                           (   1   4   3   4   0   0   0)

     celldm(1)=   6.350000  celldm(2)=   0.000000  celldm(3)=   0.000000
     celldm(4)=   0.000000  celldm(5)=   0.000000  celldm(6)=   0.000000

     crystal axes: (cart. coord. in units of alat)
               a(1) = (   0.500000   0.500000   0.500000 )  
               a(2) = (  -0.500000   0.500000   0.500000 )  
               a(3) = (  -0.500000  -0.500000   0.500000 )  

     reciprocal axes: (cart. coord. in units 2 pi/alat)
               b(1) = (  1.000000  0.000000  1.000000 )  
               b(2) = ( -1.000000  1.000000  0.000000 )  
               b(3) = (  0.000000 -1.000000  1.000000 )  


     PseudoPot. # 1 for Nb read from file:
     ./pseudo/nb_pbe_v1.uspp.F.UPF
     MD5 check sum: 573aab8a2fa660278ed4a62cd769473f
     Pseudo is Ultrasoft + core correction, Zval = 13.0
     Generated by new atomic code, or converted to UPF format
     Using radial grid of  887 points,  6 beta functions with: 
                l(1) =   0
                l(2) =   0
                l(3) =   1
                l(4) =   1
                l(5) =   2
                l(6) =   2
     Q(r) pseudized with  6 coefficients,  rinner =    1.000   1.000   1.000
                                                       1.000   1.000

     atomic species   valence    mass     pseudopotential
        Nb            13.00    92.90600     Nb( 1.00)

     48 Sym. Ops., with inversion, found



   Cartesian axes

     site n.     atom                  positions (alat units)
         1           Nb  tau(   1) = (   0.0000000   0.0000000   0.0000000  )

     number of k points=   145  Marzari-Vanderbilt smearing, width (Ry)=  0.0300

     Number of k-points >= 100: set verbosity='high' to print them.

     Dense  grid:    28675 G-vectors     FFT dimensions: (  45,  45,  45)

     Smooth grid:    10005 G-vectors     FFT dimensions: (  30,  30,  30)

     Estimated max dynamical RAM per process >     133.13 MB


     G-vector sticks info
     --------------------
     sticks:   dense  smooth     PW     G-vecs:    dense   smooth      PW
     Sum        1267     627    201                28675    10005    1745

     Using Slab Decomposition



     bravais-lattice index     =            3
     lattice parameter (alat)  =       6.3500  a.u.
     unit-cell volume          =     128.0239 (a.u.)^3
     number of atoms/cell      =            1
     number of atomic types    =            1
     number of electrons       =        13.00
     number of Kohn-Sham states=           11
     kinetic-energy cutoff     =      70.0000  Ry
     charge density cutoff     =     560.0000  Ry
     scf convergence threshold =      1.0E-10
     mixing beta               =       0.4000
     number of iterations used =            8  plain     mixing
     Exchange-correlation= SLA  PW   PBE  PBE
                           (   1   4   3   4   0   0   0)

     celldm(1)=   6.350000  celldm(2)=   0.000000  celldm(3)=   0.000000
     celldm(4)=   0.000000  celldm(5)=   0.000000  celldm(6)=   0.000000

     crystal axes: (cart. coord. in units of alat)
               a(1) = (   0.500000   0.500000   0.500000 )  
               a(2) = (  -0.500000   0.500000   0.500000 )  
               a(3) = (  -0.500000  -0.500000   0.500000 )  

     reciprocal axes: (cart. coord. in units 2 pi/alat)
               b(1) = (  1.000000  0.000000  1.000000 )  
               b(2) = ( -1.000000  1.000000  0.000000 )  
               b(3) = (  0.000000 -1.000000  1.000000 )  


     PseudoPot. # 1 for Nb read from file:
     ./pseudo/nb_pbe_v1.uspp.F.UPF
     MD5 check sum: 573aab8a2fa660278ed4a62cd769473f
     Pseudo is Ultrasoft + core correction, Zval = 13.0
     Generated by new atomic code, or converted to UPF format
     Using radial grid of  887 points,  6 beta functions with: 
                l(1) =   0
                l(2) =   0
                l(3) =   1
                l(4) =   1
                l(5) =   2
                l(6) =   2
     Q(r) pseudized with  6 coefficients,  rinner =    1.000   1.000   1.000
                                                       1.000   1.000

     atomic species   valence    mass     pseudopotential
        Nb            13.00    92.90600     Nb( 1.00)

     48 Sym. Ops., with inversion, found



   Cartesian axes

     site n.     atom                  positions (alat units)
         1           Nb  tau(   1) = (   0.0000000   0.0000000   0.0000000  )

     number of k points=   145  Marzari-Vanderbilt smearing, width (Ry)=  0.0300

     Number of k-points >= 100: set verbosity='high' to print them.

     Dense  grid:    28675 G-vectors     FFT dimensions: (  45,  45,  45)

     Smooth grid:    10005 G-vectors     FFT dimensions: (  30,  30,  30)

     Estimated max dynamical RAM per process >     133.13 MB

     Initial potential from superposition of free atoms

     starting charge      12.9973, renormalised to      13.0000

     Initial potential from superposition of free atoms

     starting charge      12.9973, renormalised to      13.0000

     Initial potential from superposition of free atoms

     starting charge      12.9973, renormalised to      13.0000

     Initial potential from superposition of free atoms

     starting charge      12.9973, renormalised to      13.0000

     Initial potential from superposition of free atoms

     starting charge      12.9973, renormalised to      13.0000

     Initial potential from superposition of free atoms

     starting charge      12.9973, renormalised to      13.0000
     Starting wfcs are   13 randomized atomic wfcs
     Starting wfcs are   13 randomized atomic wfcs
     Starting wfcs are   13 randomized atomic wfcs
     Starting wfcs are   13 randomized atomic wfcs
     Starting wfcs are   13 randomized atomic wfcs
     Starting wfcs are   13 randomized atomic wfcs

     total cpu time spent up to now is        1.1 secs

     Self-consistent Calculation

     iteration #  1     ecut=    70.00 Ry     beta= 0.40
     Davidson diagonalization with overlap

     total cpu time spent up to now is        1.1 secs

     Self-consistent Calculation

     iteration #  1     ecut=    70.00 Ry     beta= 0.40
     Davidson diagonalization with overlap

     total cpu time spent up to now is        1.2 secs

     Self-consistent Calculation

     iteration #  1     ecut=    70.00 Ry     beta= 0.40
     Davidson diagonalization with overlap

     total cpu time spent up to now is        1.3 secs

     Self-consistent Calculation

     iteration #  1     ecut=    70.00 Ry     beta= 0.40
     Davidson diagonalization with overlap

     total cpu time spent up to now is        1.3 secs

     Self-consistent Calculation

     iteration #  1     ecut=    70.00 Ry     beta= 0.40
     Davidson diagonalization with overlap

     total cpu time spent up to now is        1.4 secs

     Self-consistent Calculation

     iteration #  1     ecut=    70.00 Ry     beta= 0.40
     Davidson diagonalization with overlap
     ethr =  1.00E-02,  avg # of iterations =  3.3
     ethr =  1.00E-02,  avg # of iterations =  3.3

     Threshold (ethr) on eigenvalues was too large:
     Diagonalizing with lowered threshold

     Davidson diagonalization with overlap
     ethr =  1.00E-02,  avg # of iterations =  3.3
     ethr =  1.00E-02,  avg # of iterations =  3.3
     ethr =  1.00E-02,  avg # of iterations =  3.3
     ethr =  1.00E-02,  avg # of iterations =  3.3

     Threshold (ethr) on eigenvalues was too large:
     Diagonalizing with lowered threshold

     Davidson diagonalization with overlap

     Threshold (ethr) on eigenvalues was too large:
     Diagonalizing with lowered threshold

     Davidson diagonalization with overlap

     Threshold (ethr) on eigenvalues was too large:
     Diagonalizing with lowered threshold

     Davidson diagonalization with overlap

     Threshold (ethr) on eigenvalues was too large:
     Diagonalizing with lowered threshold

     Davidson diagonalization with overlap

     Threshold (ethr) on eigenvalues was too large:
     Diagonalizing with lowered threshold

     Davidson diagonalization with overlap
     ethr =  7.39E-04,  avg # of iterations =  1.1
     ethr =  7.39E-04,  avg # of iterations =  1.1
     ethr =  7.39E-04,  avg # of iterations =  1.1

     total cpu time spent up to now is        4.9 secs

     total energy              =    -117.92546654 Ry
     estimated scf accuracy    <       0.09914423 Ry

     iteration #  2     ecut=    70.00 Ry     beta= 0.40
     Davidson diagonalization with overlap
     ethr =  7.39E-04,  avg # of iterations =  1.1

     total cpu time spent up to now is        5.1 secs

     total energy              =    -117.92546654 Ry
     estimated scf accuracy    <       0.09914423 Ry

     iteration #  2     ecut=    70.00 Ry     beta= 0.40
     Davidson diagonalization with overlap
     ethr =  7.39E-04,  avg # of iterations =  1.1
     ethr =  7.39E-04,  avg # of iterations =  1.1

     total cpu time spent up to now is        5.3 secs

     total energy              =    -117.92546654 Ry
     estimated scf accuracy    <       0.09914423 Ry

     iteration #  2     ecut=    70.00 Ry     beta= 0.40
     Davidson diagonalization with overlap

     total cpu time spent up to now is        5.5 secs

     total energy              =    -117.92546654 Ry
     estimated scf accuracy    <       0.09914423 Ry

     iteration #  2     ecut=    70.00 Ry     beta= 0.40
     Davidson diagonalization with overlap

     total cpu time spent up to now is        5.6 secs

     total energy              =    -117.92546654 Ry
     estimated scf accuracy    <       0.09914423 Ry

     iteration #  2     ecut=    70.00 Ry     beta= 0.40
     Davidson diagonalization with overlap

     total cpu time spent up to now is        5.7 secs

     total energy              =    -117.92546654 Ry
     estimated scf accuracy    <       0.09914423 Ry

     iteration #  2     ecut=    70.00 Ry     beta= 0.40
     Davidson diagonalization with overlap
     ethr =  7.63E-04,  avg # of iterations =  1.9
     ethr =  7.63E-04,  avg # of iterations =  1.9
     ethr =  7.63E-04,  avg # of iterations =  1.9

     total cpu time spent up to now is        6.9 secs

     total energy              =    -117.92932011 Ry
     estimated scf accuracy    <       0.01206850 Ry

     iteration #  3     ecut=    70.00 Ry     beta= 0.40
     Davidson diagonalization with overlap
     ethr =  7.63E-04,  avg # of iterations =  1.9

     total cpu time spent up to now is        7.1 secs

     total energy              =    -117.92932011 Ry
     estimated scf accuracy    <       0.01206850 Ry

     iteration #  3     ecut=    70.00 Ry     beta= 0.40
     Davidson diagonalization with overlap
     ethr =  7.63E-04,  avg # of iterations =  1.9
     ethr =  7.63E-04,  avg # of iterations =  1.9

     total cpu time spent up to now is        7.3 secs

     total energy              =    -117.92932011 Ry
     estimated scf accuracy    <       0.01206850 Ry

     iteration #  3     ecut=    70.00 Ry     beta= 0.40
     Davidson diagonalization with overlap

     total cpu time spent up to now is        7.4 secs

     total energy              =    -117.92932011 Ry
     estimated scf accuracy    <       0.01206850 Ry

     iteration #  3     ecut=    70.00 Ry     beta= 0.40
     Davidson diagonalization with overlap

     total cpu time spent up to now is        7.6 secs

     total energy              =    -117.92932011 Ry
     estimated scf accuracy    <       0.01206850 Ry

     iteration #  3     ecut=    70.00 Ry     beta= 0.40
     Davidson diagonalization with overlap

     total cpu time spent up to now is        7.6 secs

     total energy              =    -117.92932011 Ry
     estimated scf accuracy    <       0.01206850 Ry

     iteration #  3     ecut=    70.00 Ry     beta= 0.40
     Davidson diagonalization with overlap
     ethr =  9.28E-05,  avg # of iterations =  2.5
     ethr =  9.28E-05,  avg # of iterations =  2.5
     ethr =  9.28E-05,  avg # of iterations =  2.5
     ethr =  9.28E-05,  avg # of iterations =  2.5

     total cpu time spent up to now is        9.1 secs

     total energy              =    -117.93144790 Ry
     estimated scf accuracy    <       0.00071737 Ry

     iteration #  4     ecut=    70.00 Ry     beta= 0.40
     Davidson diagonalization with overlap
     ethr =  9.28E-05,  avg # of iterations =  2.5
     ethr =  9.28E-05,  avg # of iterations =  2.5

     total cpu time spent up to now is        9.4 secs

     total energy              =    -117.93144790 Ry
     estimated scf accuracy    <       0.00071737 Ry

     iteration #  4     ecut=    70.00 Ry     beta= 0.40
     Davidson diagonalization with overlap

     total cpu time spent up to now is        9.4 secs

     total energy              =    -117.93144790 Ry
     estimated scf accuracy    <       0.00071737 Ry

     iteration #  4     ecut=    70.00 Ry     beta= 0.40
     Davidson diagonalization with overlap

     total cpu time spent up to now is        9.6 secs

     total energy              =    -117.93144790 Ry
     estimated scf accuracy    <       0.00071737 Ry

     iteration #  4     ecut=    70.00 Ry     beta= 0.40
     Davidson diagonalization with overlap

     total cpu time spent up to now is        9.6 secs

     total energy              =    -117.93144790 Ry
     estimated scf accuracy    <       0.00071737 Ry

     iteration #  4     ecut=    70.00 Ry     beta= 0.40
     Davidson diagonalization with overlap

     total cpu time spent up to now is        9.7 secs

     total energy              =    -117.93144790 Ry
     estimated scf accuracy    <       0.00071737 Ry

     iteration #  4     ecut=    70.00 Ry     beta= 0.40
     Davidson diagonalization with overlap
     ethr =  5.52E-06,  avg # of iterations =  3.0
     ethr =  5.52E-06,  avg # of iterations =  3.0
     ethr =  5.52E-06,  avg # of iterations =  3.0

     total cpu time spent up to now is       11.4 secs

     total energy              =    -117.93150423 Ry
     estimated scf accuracy    <       0.00009154 Ry

     iteration #  5     ecut=    70.00 Ry     beta= 0.40
     Davidson diagonalization with overlap
     ethr =  5.52E-06,  avg # of iterations =  3.0
     ethr =  5.52E-06,  avg # of iterations =  3.0
     ethr =  5.52E-06,  avg # of iterations =  3.0

     total cpu time spent up to now is       11.7 secs

     total energy              =    -117.93150423 Ry
     estimated scf accuracy    <       0.00009154 Ry

     iteration #  5     ecut=    70.00 Ry     beta= 0.40
     Davidson diagonalization with overlap

     total cpu time spent up to now is       11.8 secs

     total energy              =    -117.93150423 Ry
     estimated scf accuracy    <       0.00009154 Ry

     iteration #  5     ecut=    70.00 Ry     beta= 0.40
     Davidson diagonalization with overlap

     total cpu time spent up to now is       11.9 secs

     total energy              =    -117.93150423 Ry
     estimated scf accuracy    <       0.00009154 Ry

     iteration #  5     ecut=    70.00 Ry     beta= 0.40
     Davidson diagonalization with overlap

     total cpu time spent up to now is       12.0 secs

     total energy              =    -117.93150423 Ry
     estimated scf accuracy    <       0.00009154 Ry

     iteration #  5     ecut=    70.00 Ry     beta= 0.40
     Davidson diagonalization with overlap

     total cpu time spent up to now is       12.0 secs

     total energy              =    -117.93150423 Ry
     estimated scf accuracy    <       0.00009154 Ry

     iteration #  5     ecut=    70.00 Ry     beta= 0.40
     Davidson diagonalization with overlap
     ethr =  7.04E-07,  avg # of iterations =  2.3

     total cpu time spent up to now is       13.6 secs

     total energy              =    -117.93152782 Ry
     estimated scf accuracy    <       0.00002082 Ry

     iteration #  6     ecut=    70.00 Ry     beta= 0.40
     Davidson diagonalization with overlap
     ethr =  7.04E-07,  avg # of iterations =  2.3
     ethr =  7.04E-07,  avg # of iterations =  2.3
     ethr =  7.04E-07,  avg # of iterations =  2.3
     ethr =  7.04E-07,  avg # of iterations =  2.3
     ethr =  7.04E-07,  avg # of iterations =  2.3

     total cpu time spent up to now is       14.0 secs

     total energy              =    -117.93152782 Ry
     estimated scf accuracy    <       0.00002082 Ry

     iteration #  6     ecut=    70.00 Ry     beta= 0.40
     Davidson diagonalization with overlap

     total cpu time spent up to now is       14.1 secs

     total energy              =    -117.93152782 Ry
     estimated scf accuracy    <       0.00002082 Ry

     iteration #  6     ecut=    70.00 Ry     beta= 0.40
     Davidson diagonalization with overlap

     total cpu time spent up to now is       14.2 secs

     total energy              =    -117.93152782 Ry
     estimated scf accuracy    <       0.00002082 Ry

     iteration #  6     ecut=    70.00 Ry     beta= 0.40
     Davidson diagonalization with overlap

     total cpu time spent up to now is       14.3 secs

     total energy              =    -117.93152782 Ry
     estimated scf accuracy    <       0.00002082 Ry

     iteration #  6     ecut=    70.00 Ry     beta= 0.40
     Davidson diagonalization with overlap

     total cpu time spent up to now is       14.3 secs

     total energy              =    -117.93152782 Ry
     estimated scf accuracy    <       0.00002082 Ry

     iteration #  6     ecut=    70.00 Ry     beta= 0.40
     Davidson diagonalization with overlap
     ethr =  1.60E-07,  avg # of iterations =  2.0

     total cpu time spent up to now is       15.9 secs

     total energy              =    -117.93153090 Ry
     estimated scf accuracy    <       0.00000003 Ry

     iteration #  7     ecut=    70.00 Ry     beta= 0.40
     Davidson diagonalization with overlap
     ethr =  1.60E-07,  avg # of iterations =  2.0
     ethr =  1.60E-07,  avg # of iterations =  2.0
     ethr =  1.60E-07,  avg # of iterations =  2.0
     ethr =  1.60E-07,  avg # of iterations =  2.0
     ethr =  1.60E-07,  avg # of iterations =  2.0

     total cpu time spent up to now is       16.4 secs

     total energy              =    -117.93153090 Ry
     estimated scf accuracy    <       0.00000003 Ry

     iteration #  7     ecut=    70.00 Ry     beta= 0.40
     Davidson diagonalization with overlap

     total cpu time spent up to now is       16.5 secs

     total energy              =    -117.93153090 Ry
     estimated scf accuracy    <       0.00000003 Ry

     iteration #  7     ecut=    70.00 Ry     beta= 0.40
     Davidson diagonalization with overlap

     total cpu time spent up to now is       16.6 secs

     total energy              =    -117.93153090 Ry
     estimated scf accuracy    <       0.00000003 Ry

     iteration #  7     ecut=    70.00 Ry     beta= 0.40
     Davidson diagonalization with overlap

     total cpu time spent up to now is       16.7 secs

     total energy              =    -117.93153090 Ry
     estimated scf accuracy    <       0.00000003 Ry

     iteration #  7     ecut=    70.00 Ry     beta= 0.40
     Davidson diagonalization with overlap

     total cpu time spent up to now is       16.7 secs

     total energy              =    -117.93153090 Ry
     estimated scf accuracy    <       0.00000003 Ry

     iteration #  7     ecut=    70.00 Ry     beta= 0.40
     Davidson diagonalization with overlap
     ethr =  1.99E-10,  avg # of iterations =  3.3
     ethr =  1.99E-10,  avg # of iterations =  3.3

     total cpu time spent up to now is       18.5 secs

     total energy              =    -117.93153094 Ry
     estimated scf accuracy    <       0.00000001 Ry

     iteration #  8     ecut=    70.00 Ry     beta= 0.40
     Davidson diagonalization with overlap
     ethr =  1.99E-10,  avg # of iterations =  3.3
     ethr =  1.99E-10,  avg # of iterations =  3.3
     ethr =  1.99E-10,  avg # of iterations =  3.3
     ethr =  1.99E-10,  avg # of iterations =  3.3

     total cpu time spent up to now is       18.8 secs

     total energy              =    -117.93153094 Ry
     estimated scf accuracy    <       0.00000001 Ry

     iteration #  8     ecut=    70.00 Ry     beta= 0.40
     Davidson diagonalization with overlap

     total cpu time spent up to now is       19.0 secs

     total energy              =    -117.93153094 Ry
     estimated scf accuracy    <       0.00000001 Ry

     iteration #  8     ecut=    70.00 Ry     beta= 0.40
     Davidson diagonalization with overlap

     total cpu time spent up to now is       19.1 secs

     total energy              =    -117.93153094 Ry
     estimated scf accuracy    <       0.00000001 Ry

     iteration #  8     ecut=    70.00 Ry     beta= 0.40
     Davidson diagonalization with overlap

     total cpu time spent up to now is       19.1 secs

     total energy              =    -117.93153094 Ry
     estimated scf accuracy    <       0.00000001 Ry

     iteration #  8     ecut=    70.00 Ry     beta= 0.40
     Davidson diagonalization with overlap

     total cpu time spent up to now is       19.2 secs

     total energy              =    -117.93153094 Ry
     estimated scf accuracy    <       0.00000001 Ry

     iteration #  8     ecut=    70.00 Ry     beta= 0.40
     Davidson diagonalization with overlap
     ethr =  1.07E-10,  avg # of iterations =  1.0
     ethr =  1.07E-10,  avg # of iterations =  1.0
     ethr =  1.07E-10,  avg # of iterations =  1.0
     ethr =  1.07E-10,  avg # of iterations =  1.0

     total cpu time spent up to now is       20.5 secs

     total energy              =    -117.93153094 Ry
     estimated scf accuracy    <          1.2E-09 Ry

     iteration #  9     ecut=    70.00 Ry     beta= 0.40
     Davidson diagonalization with overlap
     ethr =  1.07E-10,  avg # of iterations =  1.0

     total cpu time spent up to now is       20.6 secs

     total energy              =    -117.93153094 Ry
     estimated scf accuracy    <          1.2E-09 Ry

     iteration #  9     ecut=    70.00 Ry     beta= 0.40
     Davidson diagonalization with overlap
     ethr =  1.07E-10,  avg # of iterations =  1.0

     total cpu time spent up to now is       20.7 secs

     total energy              =    -117.93153094 Ry
     estimated scf accuracy    <          1.2E-09 Ry

     iteration #  9     ecut=    70.00 Ry     beta= 0.40
     Davidson diagonalization with overlap

     total cpu time spent up to now is       20.9 secs

     total energy              =    -117.93153094 Ry
     estimated scf accuracy    <          1.2E-09 Ry

     iteration #  9     ecut=    70.00 Ry     beta= 0.40
     Davidson diagonalization with overlap

     total cpu time spent up to now is       20.9 secs

     total energy              =    -117.93153094 Ry
     estimated scf accuracy    <          1.2E-09 Ry

     iteration #  9     ecut=    70.00 Ry     beta= 0.40
     Davidson diagonalization with overlap

     total cpu time spent up to now is       21.1 secs

     total energy              =    -117.93153094 Ry
     estimated scf accuracy    <          1.2E-09 Ry

     iteration #  9     ecut=    70.00 Ry     beta= 0.40
     Davidson diagonalization with overlap
     ethr =  9.58E-12,  avg # of iterations =  2.2
     ethr =  9.58E-12,  avg # of iterations =  2.2
     ethr =  9.58E-12,  avg # of iterations =  2.2
     ethr =  9.58E-12,  avg # of iterations =  2.2

     total cpu time spent up to now is       22.8 secs

     total energy              =    -117.93153094 Ry
     estimated scf accuracy    <          1.1E-09 Ry

     iteration # 10     ecut=    70.00 Ry     beta= 0.40
     Davidson diagonalization with overlap

     total cpu time spent up to now is       22.8 secs

     total energy              =    -117.93153094 Ry
     estimated scf accuracy    <          1.1E-09 Ry

     iteration # 10     ecut=    70.00 Ry     beta= 0.40
     Davidson diagonalization with overlap
     ethr =  9.58E-12,  avg # of iterations =  2.2
     ethr =  9.58E-12,  avg # of iterations =  2.2

     total cpu time spent up to now is       22.9 secs

     total energy              =    -117.93153094 Ry
     estimated scf accuracy    <          1.1E-09 Ry

     iteration # 10     ecut=    70.00 Ry     beta= 0.40
     Davidson diagonalization with overlap

     total cpu time spent up to now is       23.1 secs

     total energy              =    -117.93153094 Ry
     estimated scf accuracy    <          1.1E-09 Ry

     iteration # 10     ecut=    70.00 Ry     beta= 0.40
     Davidson diagonalization with overlap

     total cpu time spent up to now is       23.3 secs

     total energy              =    -117.93153094 Ry
     estimated scf accuracy    <          1.1E-09 Ry

     iteration # 10     ecut=    70.00 Ry     beta= 0.40
     Davidson diagonalization with overlap

     total cpu time spent up to now is       23.3 secs

     total energy              =    -117.93153094 Ry
     estimated scf accuracy    <          1.1E-09 Ry

     iteration # 10     ecut=    70.00 Ry     beta= 0.40
     Davidson diagonalization with overlap
     ethr =  8.20E-12,  avg # of iterations =  1.0
     ethr =  8.20E-12,  avg # of iterations =  1.0
     ethr =  8.20E-12,  avg # of iterations =  1.0
     ethr =  8.20E-12,  avg # of iterations =  1.0
     ethr =  8.20E-12,  avg # of iterations =  1.0

     total cpu time spent up to now is       24.6 secs

     total energy              =    -117.93153094 Ry
     estimated scf accuracy    <          3.1E-10 Ry

     iteration # 11     ecut=    70.00 Ry     beta= 0.40
     Davidson diagonalization with overlap

     total cpu time spent up to now is       24.6 secs

     total energy              =    -117.93153094 Ry
     estimated scf accuracy    <          3.1E-10 Ry

     iteration # 11     ecut=    70.00 Ry     beta= 0.40
     Davidson diagonalization with overlap

     total cpu time spent up to now is       24.7 secs

     total energy              =    -117.93153094 Ry
     estimated scf accuracy    <          3.1E-10 Ry

     iteration # 11     ecut=    70.00 Ry     beta= 0.40
     Davidson diagonalization with overlap
     ethr =  8.20E-12,  avg # of iterations =  1.0

     total cpu time spent up to now is       24.8 secs

     total energy              =    -117.93153094 Ry
     estimated scf accuracy    <          3.1E-10 Ry

     iteration # 11     ecut=    70.00 Ry     beta= 0.40
     Davidson diagonalization with overlap

     total cpu time spent up to now is       25.1 secs

     total energy              =    -117.93153094 Ry
     estimated scf accuracy    <          3.1E-10 Ry

     iteration # 11     ecut=    70.00 Ry     beta= 0.40
     Davidson diagonalization with overlap

     total cpu time spent up to now is       25.3 secs

     total energy              =    -117.93153094 Ry
     estimated scf accuracy    <          3.1E-10 Ry

     iteration # 11     ecut=    70.00 Ry     beta= 0.40
     Davidson diagonalization with overlap
     ethr =  2.36E-12,  avg # of iterations =  2.0
     ethr =  2.36E-12,  avg # of iterations =  2.0
     ethr =  2.36E-12,  avg # of iterations =  2.0
     ethr =  2.36E-12,  avg # of iterations =  2.0
     ethr =  2.36E-12,  avg # of iterations =  2.0

     total cpu time spent up to now is       26.9 secs

     End of self-consistent calculation

     Number of k-points >= 100: set verbosity='high' to print the bands.

     the Fermi energy is    16.9441 ev

!    total energy              =    -117.93153094 Ry
     estimated scf accuracy    <          5.3E-11 Ry
     smearing contrib. (-TS)   =       0.00004926 Ry
     internal energy E=F+TS    =    -117.93158020 Ry

     The total energy is F=E-TS. E is the sum of the following terms:
     one-electron contribution =     -18.25491360 Ry
     hartree contribution      =      15.56642123 Ry
     xc contribution           =     -18.38789839 Ry
     ewald contribution        =     -96.85518944 Ry

     convergence has been achieved in  11 iterations

     Writing all to output data dir ./tmp/Nb_eos_6.35.save/

     total cpu time spent up to now is       26.9 secs

     End of self-consistent calculation

     Number of k-points >= 100: set verbosity='high' to print the bands.

     the Fermi energy is    16.9441 ev

!    total energy              =    -117.93153094 Ry
     estimated scf accuracy    <          5.3E-11 Ry
     smearing contrib. (-TS)   =       0.00004926 Ry
     internal energy E=F+TS    =    -117.93158020 Ry

     The total energy is F=E-TS. E is the sum of the following terms:
     one-electron contribution =     -18.25491360 Ry
     hartree contribution      =      15.56642123 Ry
     xc contribution           =     -18.38789839 Ry
     ewald contribution        =     -96.85518944 Ry

     convergence has been achieved in  11 iterations

     Writing all to output data dir ./tmp/Nb_eos_6.35.save/

     total cpu time spent up to now is       27.0 secs

     End of self-consistent calculation

     Number of k-points >= 100: set verbosity='high' to print the bands.

     the Fermi energy is    16.9441 ev

!    total energy              =    -117.93153094 Ry
     estimated scf accuracy    <          5.3E-11 Ry
     smearing contrib. (-TS)   =       0.00004926 Ry
     internal energy E=F+TS    =    -117.93158020 Ry

     The total energy is F=E-TS. E is the sum of the following terms:
     one-electron contribution =     -18.25491360 Ry
     hartree contribution      =      15.56642123 Ry
     xc contribution           =     -18.38789839 Ry
     ewald contribution        =     -96.85518944 Ry

     convergence has been achieved in  11 iterations

     Writing all to output data dir ./tmp/Nb_eos_6.35.save/
At line 35 of file /Users/israelhernandez/Documents/QuantumE_2/q-e-qe-7.2/PW/src/stop_run.f90 (unit = 90, file = './tmp/Nb_eos_6.35.restart')
Fortran runtime error: File cannot be deleted

Error termination. Backtrace:

     init_run     :      1.02s CPU      1.15s WALL (       1 calls)
     electrons    :     24.05s CPU     25.65s WALL (       1 calls)

     Called by init_run:
     wfcinit      :      0.80s CPU      0.92s WALL (       1 calls)
     potinit      :      0.02s CPU      0.02s WALL (       1 calls)
     hinit0       :      0.16s CPU      0.16s WALL (       1 calls)

     Called by electrons:
     c_bands      :     19.18s CPU     20.45s WALL (      12 calls)
     sum_band     :      4.39s CPU      4.63s WALL (      12 calls)
     v_of_rho     :      0.22s CPU      0.23s WALL (      12 calls)
     newd         :      0.26s CPU      0.33s WALL (      12 calls)
     mix_rho      :      0.02s CPU      0.03s WALL (      12 calls)

     Called by c_bands:
     init_us_2    :      0.51s CPU      0.54s WALL (    3625 calls)
     init_us_2:cp :      0.51s CPU      0.53s WALL (    3625 calls)
     cegterg      :     18.41s CPU     19.63s WALL (    1740 calls)

     Called by *egterg:
     cdiaghg      :      0.34s CPU      0.35s WALL (    5324 calls)
     h_psi        :     16.77s CPU     17.90s WALL (    5614 calls)
     s_psi        :      0.32s CPU      0.33s WALL (    5614 calls)
     g_psi        :      0.05s CPU      0.05s WALL (    3729 calls)

     Called by h_psi:
     h_psi:calbec :      0.37s CPU      0.39s WALL (    5614 calls)
     vloc_psi     :     16.04s CPU     17.11s WALL (    5614 calls)
     add_vuspsi   :      0.32s CPU      0.34s WALL (    5614 calls)

     General routines
     calbec       :      0.52s CPU      0.54s WALL (    7354 calls)
     fft          :      0.11s CPU      0.12s WALL (     155 calls)
     ffts         :      0.01s CPU      0.01s WALL (      24 calls)
     fftw         :     16.45s CPU     17.53s WALL (  112526 calls)
     interpolate  :      0.01s CPU      0.02s WALL (      12 calls)


     PWSCF        :     25.13s CPU     26.99s WALL


   This run was terminated on:  23:17: 0   6Mar2026            

=------------------------------------------------------------------------------=
   JOB DONE.
=------------------------------------------------------------------------------=
Note: The following floating-point exceptions are signalling: IEEE_INVALID_FLAG IEEE_DIVIDE_BY_ZERO IEEE_UNDERFLOW_FLAG

     total cpu time spent up to now is       27.0 secs

     End of self-consistent calculation

     Number of k-points >= 100: set verbosity='high' to print the bands.

     the Fermi energy is    16.9441 ev

!    total energy              =    -117.93153094 Ry
     estimated scf accuracy    <          5.3E-11 Ry
     smearing contrib. (-TS)   =       0.00004926 Ry
     internal energy E=F+TS    =    -117.93158020 Ry

     The total energy is F=E-TS. E is the sum of the following terms:
     one-electron contribution =     -18.25491360 Ry
     hartree contribution      =      15.56642123 Ry
     xc contribution           =     -18.38789839 Ry
     ewald contribution        =     -96.85518944 Ry

     convergence has been achieved in  11 iterations

     init_run     :      1.02s CPU      1.07s WALL (       1 calls)
     electrons    :     24.32s CPU     25.84s WALL (       1 calls)

     Called by init_run:
     wfcinit      :      0.79s CPU      0.82s WALL (       1 calls)
     potinit      :      0.03s CPU      0.03s WALL (       1 calls)
     hinit0       :      0.16s CPU      0.16s WALL (       1 calls)

     Called by electrons:
     c_bands      :     19.38s CPU     20.56s WALL (      12 calls)
     sum_band     :      4.42s CPU      4.67s WALL (      12 calls)
     v_of_rho     :      0.23s CPU      0.26s WALL (      12 calls)
     newd         :      0.28s CPU      0.36s WALL (      12 calls)
     mix_rho      :      0.02s CPU      0.03s WALL (      12 calls)

     Called by c_bands:
     init_us_2    :      0.52s CPU      0.55s WALL (    3625 calls)
     init_us_2:cp :      0.51s CPU      0.54s WALL (    3625 calls)
     cegterg      :     18.60s CPU     19.72s WALL (    1740 calls)

     Called by *egterg:
     cdiaghg      :      0.34s CPU      0.39s WALL (    5324 calls)
     h_psi        :     16.92s CPU     17.76s WALL (    5614 calls)
     s_psi        :      0.32s CPU      0.34s WALL (    5614 calls)
     g_psi        :      0.05s CPU      0.05s WALL (    3729 calls)

     Called by h_psi:
     h_psi:calbec :      0.38s CPU      0.39s WALL (    5614 calls)
     vloc_psi     :     16.18s CPU     16.96s WALL (    5614 calls)
     add_vuspsi   :      0.33s CPU      0.35s WALL (    5614 calls)

     General routines
     calbec       :      0.52s CPU      0.54s WALL (    7354 calls)
     fft          :      0.13s CPU      0.13s WALL (     155 calls)
     ffts         :      0.01s CPU      0.01s WALL (      24 calls)
     fftw         :     16.61s CPU     17.38s WALL (  112526 calls)
     interpolate  :      0.02s CPU      0.02s WALL (      12 calls)


     PWSCF        :     25.41s CPU     27.02s WALL


   This run was terminated on:  23:17: 0   6Mar2026            

=------------------------------------------------------------------------------=
   JOB DONE.
=------------------------------------------------------------------------------=
Note: The following floating-point exceptions are signalling: IEEE_INVALID_FLAG IEEE_DIVIDE_BY_ZERO IEEE_UNDERFLOW_FLAG

     Writing all to output data dir ./tmp/Nb_eos_6.35.save/
#0  0x104b9ad2f
#1  0x104b9b8d7
#2  0x104b9c1a7
#3  0x104c8013b
#4  0x1029ab6cf
#5  0x1027e5317
#6  0x102df3d1f
     ethr =  2.36E-12,  avg # of iterations =  2.0

     init_run     :      1.21s CPU      1.28s WALL (       1 calls)
     electrons    :     24.04s CPU     25.67s WALL (       1 calls)

     Called by init_run:
     wfcinit      :      0.96s CPU      1.00s WALL (       1 calls)
     potinit      :      0.03s CPU      0.03s WALL (       1 calls)
     hinit0       :      0.18s CPU      0.19s WALL (       1 calls)

     Called by electrons:
     c_bands      :     19.20s CPU     20.49s WALL (      12 calls)
     sum_band     :      4.36s CPU      4.63s WALL (      12 calls)
     v_of_rho     :      0.22s CPU      0.25s WALL (      12 calls)
     newd         :      0.27s CPU      0.33s WALL (      12 calls)
     mix_rho      :      0.02s CPU      0.02s WALL (      12 calls)

     Called by c_bands:
     init_us_2    :      0.52s CPU      0.54s WALL (    3625 calls)
     init_us_2:cp :      0.51s CPU      0.54s WALL (    3625 calls)
     cegterg      :     18.42s CPU     19.66s WALL (    1740 calls)

     Called by *egterg:
     cdiaghg      :      0.34s CPU  
     total cpu time spent up to now is       27.2 secs

     End of self-consistent calculation

     Number of k-points >= 100: set verbosity='high' to print the bands.

     the Fermi energy is    16.9441 ev

!    total energy              =    -117.93153094 Ry
     estimated scf accuracy    <          5.3E-11 Ry
     smearing contrib. (-TS)   =       0.00004926 Ry
     internal energy E=F+TS    =    -117.93158020 Ry

     The total energy is F=E-TS. E is the sum of the following terms:
     one-electron contribution =     -18.25491360 Ry
     hartree contribution      =      15.56642123 Ry
     xc contribution           =     -18.38789839 Ry
     ewald contribution        =     -96.85518944 Ry

     convergence has been achieved in  11 iterations

     Writing all to output data dir ./tmp/Nb_eos_6.35.save/

     init_run     :      1.16s CPU      1.32s WALL (       1 calls)
     electrons    :     24.33s CPU     25.80s WALL (       1 calls)

     Called by init_run:
--------------------------------------------------------------------------
prterun detected that one or more processes exited with non-zero status,
thus causing the job to be terminated. The first process to do so was:

   Process name: [prterun-Israels-MacBook-Pro-58403@1,4]
   Exit code:    2
--------------------------------------------------------------------------
     wfcinit      :      0.93s CPU     