
     Program PWSCF v.7.2 starts on  6Mar2026 at 23:17: 1 

     This program is part of the open-source Quantum ESPRESSO suite
     for quantum simulation of materials; please cite
         "P. Giannozzi et al., J. Phys.:Condens. Matter 21 395502 (2009);
         "P. Giannozzi et al., J. Phys.:Condens. Matter 29 465901 (2017);
         "P. Giannozzi et al., J. Chem. Phys. 152 154105 (2020);
          URL http://www.quantum-espresso.org", 
     in publications or presentations arising from this work. More details at
     http://www.quantum-espresso.org/quote

     Serial multi-threaded version, running on    1 processor cores
     0 MiB available memory on the printing compute node when the environment starts

     Reading input from results/eos/Nb_eos_6.40.in

     Program PWSCF v.7.2 starts on  6Mar2026 at 23:17: 1 

     This program is part of the open-source Quantum ESPRESSO suite
     for quantum simulation of materials; please cite
         "P. Giannozzi et al., J. Phys.:Condens. Matter 21 395502 (2009);
         "P. Giannozzi et al., J. Phys.:Condens. Matter 29 465901 (2017);
         "P. Giannozzi et al., J. Chem. Phys. 152 154105 (2020);
          URL http://www.quantum-espresso.org", 
     in publications or presentations arising from this work. More details at
     http://www.quantum-espresso.org/quote

     Serial multi-threaded version, running on    1 processor cores
     0 MiB available memory on the printing compute node when the environment starts

     Reading input from results/eos/Nb_eos_6.40.in

     Current dimensions of program PWSCF are:
     Max number of different atomic species (ntypx) = 10
     Max number of k-points (npk) =  40000
     Max angular momentum in pseudopotentials (lmaxx) =  4

     Current dimensions of program PWSCF are:
     Max number of different atomic species (ntypx) = 10
     Max number of k-points (npk) =  40000
     Max angular momentum in pseudopotentials (lmaxx) =  4

     Program PWSCF v.7.2 starts on  6Mar2026 at 23:17: 1 

     This program is part of the open-source Quantum ESPRESSO suite
     for quantum simulation of materials; please cite
         "P. Giannozzi et al., J. Phys.:Condens. Matter 21 395502 (2009);
         "P. Giannozzi et al., J. Phys.:Condens. Matter 29 465901 (2017);
         "P. Giannozzi et al., J. Chem. Phys. 152 154105 (2020);
          URL http://www.quantum-espresso.org", 
     in publications or presentations arising from this work. More details at
     http://www.quantum-espresso.org/quote

     Serial multi-threaded version, running on    1 processor cores
     0 MiB available memory on the printing compute node when the environment starts

     Reading input from results/eos/Nb_eos_6.40.in

     Program PWSCF v.7.2 starts on  6Mar2026 at 23:17: 1 

     This program is part of the open-source Quantum ESPRESSO suite
     for quantum simulation of materials; please cite
         "P. Giannozzi et al., J. Phys.:Condens. Matter 21 395502 (2009);
         "P. Giannozzi et al., J. Phys.:Condens. Matter 29 465901 (2017);
         "P. Giannozzi et al., J. Chem. Phys. 152 154105 (2020);
          URL http://www.quantum-espresso.org", 
     in publications or presentations arising from this work. More details at
     http://www.quantum-espresso.org/quote

     Serial multi-threaded version, running on    1 processor cores
     0 MiB available memory on the printing compute node when the environment starts


     Program PWSCF v.7.2 starts on  6Mar2026 at 23:17: 1 

     This program is part of the open-source Quantum ESPRESSO suite
     for quantum simulation of materials; please cite
         "P. Giannozzi et al., J. Phys.:Condens. Matter 21 395502 (2009);
         "P. Giannozzi et al., J. Phys.:Condens. Matter 29 465901 (2017);
         "P. Giannozzi et al., J. Chem. Phys. 152 154105 (2020);
          URL http://www.quantum-espresso.org", 
     in publications or presentations arising from this work. More details at
     http://www.quantum-espresso.org/quote

     Serial multi-threaded version, running on    1 processor cores
     0 MiB available memory on the printing compute node when the environment starts

     Reading input from results/eos/Nb_eos_6.40.in
     Reading input from results/eos/Nb_eos_6.40.in

     Program PWSCF v.7.2 starts on  6Mar2026 at 23:17: 1 

     This program is part of the open-source Quantum ESPRESSO suite
     for quantum simulation of materials; please cite
         "P. Giannozzi et al., J. Phys.:Condens. Matter 21 395502 (2009);
         "P. Giannozzi et al., J. Phys.:Condens. Matter 29 465901 (2017);
         "P. Giannozzi et al., J. Chem. Phys. 152 154105 (2020);
          URL http://www.quantum-espresso.org", 
     in publications or presentations arising from this work. More details at
     http://www.quantum-espresso.org/quote

     Serial multi-threaded version, running on    1 processor cores
     0 MiB available memory on the printing compute node when the environment starts

     Reading input from results/eos/Nb_eos_6.40.in

     Current dimensions of program PWSCF are:
     Max number of different atomic species (ntypx) = 10
     Max number of k-points (npk) =  40000
     Max angular momentum in pseudopotentials (lmaxx) =  4

     Current dimensions of program PWSCF are:
     Max number of different atomic species (ntypx) = 10
     Max number of k-points (npk) =  40000
     Max angular momentum in pseudopotentials (lmaxx) =  4

     Current dimensions of program PWSCF are:
     Max number of different atomic species (ntypx) = 10
     Max number of k-points (npk) =  40000
     Max angular momentum in pseudopotentials (lmaxx) =  4

     Current dimensions of program PWSCF are:
     Max number of different atomic species (ntypx) = 10
     Max number of k-points (npk) =  40000
     Max angular momentum in pseudopotentials (lmaxx) =  4


     G-vector sticks info
     --------------------
     sticks:   dense  smooth     PW     G-vecs:    dense   smooth      PW
     Sum        1279     645    205                29197    10425    1865

     Using Slab Decomposition



     bravais-lattice index     =            3
     lattice parameter (alat)  =       6.4000  a.u.
     unit-cell volume          =     131.0720 (a.u.)^3
     number of atoms/cell      =            1
     number of atomic types    =            1
     number of electrons       =        13.00
     number of Kohn-Sham states=           11
     kinetic-energy cutoff     =      70.0000  Ry
     charge density cutoff     =     560.0000  Ry
     scf convergence threshold =      1.0E-10
     mixing beta               =       0.4000
     number of iterations used =            8  plain     mixing
     Exchange-correlation= SLA  PW   PBE  PBE
                           (   1   4   3   4   0   0   0)

     celldm(1)=   6.400000  celldm(2)=   0.000000  celldm(3)=   0.000000
     celldm(4)=   0.000000  celldm(5)=   0.000000  celldm(6)=   0.000000

     crystal axes: (cart. coord. in units of alat)
               a(1) = (   0.500000   0.500000   0.500000 )  
               a(2) = (  -0.500000   0.500000   0.500000 )  
               a(3) = (  -0.500000  -0.500000   0.500000 )  

     reciprocal axes: (cart. coord. in units 2 pi/alat)
               b(1) = (  1.000000  0.000000  1.000000 )  
               b(2) = ( -1.000000  1.000000  0.000000 )  
               b(3) = (  0.000000 -1.000000  1.000000 )  


     PseudoPot. # 1 for Nb read from file:
     ./pseudo/nb_pbe_v1.uspp.F.UPF
     MD5 check sum: 573aab8a2fa660278ed4a62cd769473f
     Pseudo is Ultrasoft + core correction, Zval = 13.0
     Generated by new atomic code, or converted to UPF format
     Using radial grid of  887 points,  6 beta functions with: 
                l(1) =   0
                l(2) =   0
                l(3) =   1
                l(4) =   1
                l(5) =   2
                l(6) =   2
     Q(r) pseudized with  6 coefficients,  rinner =    1.000   1.000   1.000
                                                       1.000   1.000

     atomic species   valence    mass     pseudopotential
        Nb            13.00    92.90600     Nb( 1.00)

     48 Sym. Ops., with inversion, found



   Cartesian axes

     site n.     atom                  positions (alat units)
         1           Nb  tau(   1) = (   0.0000000   0.0000000   0.0000000  )

     number of k points=   145  Marzari-Vanderbilt smearing, width (Ry)=  0.0300

     Number of k-points >= 100: set verbosity='high' to print them.

     Dense  grid:    29197 G-vectors     FFT dimensions: (  45,  45,  45)

     Smooth grid:    10425 G-vectors     FFT dimensions: (  30,  30,  30)

     Estimated max dynamical RAM per process >     135.58 MB



     G-vector sticks info
     --------------------
     sticks:   dense  smooth     PW     G-vecs:    dense   smooth      PW
     Sum        1279     645    205                29197    10425    1865

     Using Slab Decomposition



     bravais-lattice index     =            3
     lattice parameter (alat)  =       6.4000  a.u.
     unit-cell volume          =     131.0720 (a.u.)^3
     number of atoms/cell      =            1
     number of atomic types    =            1
     number of electrons       =        13.00
     number of Kohn-Sham states=           11
     kinetic-energy cutoff     =      70.0000  Ry
     charge density cutoff     =     560.0000  Ry
     scf convergence threshold =      1.0E-10
     mixing beta               =       0.4000
     number of iterations used =            8  plain     mixing
     Exchange-correlation= SLA  PW   PBE  PBE
                           (   1   4   3   4   0   0   0)

     celldm(1)=   6.400000  celldm(2)=   0.000000  celldm(3)=   0.000000
     celldm(4)=   0.000000  celldm(5)=   0.000000  celldm(6)=   0.000000

     crystal axes: (cart. coord. in units of alat)
               a(1) = (   0.500000   0.500000   0.500000 )  
               a(2) = (  -0.500000   0.500000   0.500000 )  
               a(3) = (  -0.500000  -0.500000   0.500000 )  

     reciprocal axes: (cart. coord. in units 2 pi/alat)
               b(1) = (  1.000000  0.000000  1.000000 )  
               b(2) = ( -1.000000  1.000000  0.000000 )  
               b(3) = (  0.000000 -1.000000  1.000000 )  


     PseudoPot. # 1 for Nb read from file:
     ./pseudo/nb_pbe_v1.uspp.F.UPF
     MD5 check sum: 573aab8a2fa660278ed4a62cd769473f
     Pseudo is Ultrasoft + core correction, Zval = 13.0
     Generated by new atomic code, or converted to UPF format
     Using radial grid of  887 points,  6 beta functions with: 
                l(1) =   0
                l(2) =   0
                l(3) =   1
                l(4) =   1
                l(5) =   2
                l(6) =   2
     Q(r) pseudized with  
     G-vector sticks info
     --------------------
     sticks:   dense  smooth     PW     G-vecs:    dense   smooth      PW
     Sum        1279     645    205                29197    10425    1865

     Using Slab Decomposition



     bravais-lattice index     =            3
     lattice parameter (alat)  =       6.4000  a.u.
     unit-cell volume          =     131.0720 (a.u.)^3
     number of atoms/cell      =            1
     number of atomic types    =            1
     number of electrons       =        13.00
     number of Kohn-Sham states=           11
     kinetic-energy cutoff     =      70.0000  Ry
     charge density cutoff     =     560.0000  Ry
     scf convergence threshold =      1.0E-10
     mixing beta               =       0.4000
     number of iterations used =            8  plain     mixing
     Exchange-correlation= SLA  PW   PBE  PBE
                           (   1   4   3   4   0   0   0)

     celldm(1)=   6.400000  celldm(2)=   0.000000  celldm(3)=   0.000000
     celldm(4)=   0.000000  celldm(5)=   0.000000  celldm(6)=   0.000000

     crystal axes: (cart. coord. in units of alat)
               a(1) = (   0.500000   0.500000   0.500000 )  
               a(2) = (  -0.500000   0.500000   0.500000 )  
               a(3) = (  -0.500000  -0.500000   0.500000 )  

     reciprocal axes: (cart. coord. in units 2 pi/alat)
               b(1) = (  1.000000  0.000000  1.000000 )  
               b(2) = ( -1.000000  1.000000  0.000000 )  
               b(3) = (  0.000000 -1.000000  1.000000 )  


     PseudoPot. # 1 for Nb read from file:
     ./pseudo/nb_pbe_v1.uspp.F.UPF
     MD5 check sum: 573aab8a2fa660278ed4a62cd769473f
     Pseudo is Ultrasoft + core correction, Zval = 13.0
     Generated by new atomic code, or converted to UPF format
     Using radial grid of  887 points,  6 beta functions with: 
                l(1) =   0
                l(2) =   0
                l(3) =   1
                l(4) =   1
                l(5) =   2
                l(6) =   2
     Q(r) pseudized with  6 coefficients,  rinner =    1.000   1.000   1.000
                                                       1.000   1.000

     atomic species   valence    mass     pseudopotential
        Nb            13.00    92.90600     Nb( 1.00)

     48 Sym. Ops., with inversion, found



   Cartesian axes

     site n.     atom                  positions (alat units)
         1           Nb  tau(   1) = (   0.0000000   0.0000000   0.0000000  )

     number of k points=   145  Marzari-Vanderbilt smearing, width (Ry)=  0.0300

     Number of k-points >= 100: set verbosity='high' to print them.

     Dense  6 coefficients,  rinner =    1.000   1.000   1.000
                                                       1.000   1.000

     atomic species   valence    mass     pseudopotential
        Nb            13.00    92.90600     Nb( 1.00)

     48 Sym. Ops., with inversion, found



   Cartesian axes

     site n.     atom                  positions (alat units)
         1           Nb  tau(   1) = (   0.0000000   0.0000000   0.0000000  )

     number of k points=   145  Marzari-Vanderbilt smearing, width (Ry)=  0.0300

     Number of k-points >= 100: set verbosity='high' to print them.

     Dense  grid:    29197 G-vectors     FFT dimensions: (  45,  45,  45)

     Smooth grid:    10425 G-vectors     FFT dimensions: (  30,  30,  30)

     Estimated max dynamical RAM per process >     135.58 MB
grid:    29197 G-vectors     FFT dimensions: (  45,  45,  45)

     Smooth grid:    10425 G-vectors     FFT dimensions: (  30,  30,  30)

     Estimated max dynamical RAM per process >     135.58 MB


     G-vector sticks info
     --------------------
     sticks:   dense  smooth     PW     G-vecs:    dense   smooth      PW
     Sum        1279     645    205                29197    10425    1865

     Using Slab Decomposition



     bravais-lattice index     =            3
     lattice parameter (alat)  =       6.4000  a.u.
     unit-cell volume          =     131.0720 (a.u.)^3
     number of atoms/cell      =            1
     number of atomic types    =            1
     number of electrons       =        13.00
     number of Kohn-Sham states=           11
     kinetic-energy cutoff     =      70.0000  Ry
     charge density cutoff     =     560.0000  Ry
     scf convergence threshold =      1.0E-10
     mixing beta               =       0.4000
     number of iterations used =            8  plain     mixing
     Exchange-correlation= SLA  PW   PBE  PBE
                           (   1   4   3   4   0   0   0)

     celldm(1)=   6.400000  celldm(2)=   0.000000  celldm(3)=   0.000000
     celldm(4)=   0.000000  celldm(5)=   0.000000  celldm(6)=   0.000000

     crystal axes: (cart. coord. in units of alat)
               a(1) = (   0.500000   0.500000   0.500000 )  
               a(2) = (  -0.500000   0.500000   0.500000 )  
               a(3) = (  -0.500000  -0.500000   0.500000 )  

     reciprocal axes: (cart. coord. in units 2 pi/alat)
               b(1) = (  1.000000  0.000000  1.000000 )  
               b(2) = ( -1.000000  1.000000  0.000000 )  
               b(3) = (  0.000000 -1.000000  1.000000 )  


     PseudoPot. # 1 for Nb read from file:
     ./pseudo/nb_pbe_v1.uspp.F.UPF
     MD5 check sum: 573aab8a2fa660278ed4a62cd769473f
     Pseudo is Ultrasoft + core correction, Zval = 13.0
     Generated by new atomic code, or converted to UPF format
     Using radial grid of  887 points,  6 beta functions with: 
                l(1) =   0
                l(2) =   0
                l(3) =   1
                l(4) =   1
                l(5) =   2
                l(6) =   2
     Q(r) pseudized with  6 coefficients,  rinner =    1.000   1.000   1.000
                                                       1.000   1.000

     atomic species   valence    mass     pseudopotential
        Nb            13.00    92.90600     Nb( 1.00)

     48 Sym. Ops., with inversion, found



   Cartesian axes

     site n.     atom                  positions (alat units)
         1           Nb  tau(   1) = (   0.0000000   0.0000000   0.0000000  )

     number of k points=   145  Marzari-Vanderbilt smearing, width (Ry)=  0.0300

     Number of k-points >= 100: set verbosity='high' to print them.

     Dense  grid:    29197 G-vectors     FFT dimensions: (  45,  45,  45)

     Smooth grid:    10425 G-vectors     FFT dimensions: (  30,  30,  30)

     Estimated max dynamical RAM per process >     135.58 MB


     G-vector sticks info
     --------------------
     sticks:   dense  smooth     PW     G-vecs:    dense   smooth      PW
     Sum        1279     645    205                29197    10425    1865

     Using Slab Decomposition



     bravais-lattice index     =            3
     lattice parameter (alat)  =       6.4000  a.u.
     unit-cell volume          =     131.0720 (a.u.)^3
     number of atoms/cell      =            1
     number of atomic types    =            1
     number of electrons       =        13.00
     number of Kohn-Sham states=           11
     kinetic-energy cutoff     =      70.0000  Ry
     charge density cutoff     =     560.0000  Ry
     scf convergence threshold =      1.0E-10
     mixing beta               =       0.4000
     number of iterations used =            8  plain     mixing
     Exchange-correlation= SLA  PW   PBE  PBE
                           (   1   4   3   4   0   0   0)

     celldm(1)=   6.400000  celldm(2)=   0.000000  celldm(3)=   0.000000
     celldm(4)=   0.000000  celldm(5)=   0.000000  celldm(6)=   0.000000

     crystal axes: (cart. coord. in units of alat)
               a(1) = (   0.500000   0.500000   0.500000 )  
               a(2) = (  -0.500000   0.500000   0.500000 )  
               a(3) = (  -0.500000  -0.500000   0.500000 )  

     reciprocal axes: (cart. coord. in units 2 pi/alat)
               b(1) = (  1.000000  0.000000  1.000000 )  
               b(2) = ( -1.000000  1.000000  0.000000 )  
               b(3) = (  0.000000 -1.000000  1.000000 )  


     PseudoPot. # 1 for Nb read from file:
     ./pseudo/nb_pbe_v1.uspp.F.UPF
     MD5 check sum: 573aab8a2fa660278ed4a62cd769473f
     Pseudo is Ultrasoft + core correction, Zval = 13.0
     Generated by new atomic code, or converted to UPF format
     Using radial grid of  887 points,  6 beta functions with: 
                l(1) =   0
                l(2) =   0
                l(3) =   1
                l(4) =   1
                l(5) =   2
                l(6) =   2
     Q(r) pseudized with  6 coefficients,  rinner =    1.000   1.000   1.000
                                                       1.000   1.000

     atomic species   valence    mass     pseudopotential
        Nb            13.00    92.90600     Nb( 1.00)

     48 Sym. Ops., with inversion, found



   Cartesian axes

     site n.     atom                  positions (alat units)
         1           Nb  tau(   1) = (   0.0000000   0.0000000   0.0000000  )

     number of k points=   145  Marzari-Vanderbilt smearing, width (Ry)=  0.0300

     Number of k-points >= 100: set verbosity='high' to print them.

     Dense  grid:    29197 G-vectors     FFT dimensions: (  45,  45,  45)

     Smooth grid:    10425 G-vectors     FFT dimensions: (  30,  30,  30)

     Estimated max dynamical RAM per process >     135.58 MB


     G-vector sticks info
     --------------------
     sticks:   dense  smooth     PW     G-vecs:    dense   smooth      PW
     Sum        1279     645    205                29197    10425    1865

     Using Slab Decomposition



     bravais-lattice index     =            3
     lattice parameter (alat)  =       6.4000  a.u.
     unit-cell volume          =     131.0720 (a.u.)^3
     number of atoms/cell      =            1
     number of atomic types    =            1
     number of electrons       =        13.00
     number of Kohn-Sham states=           11
     kinetic-energy cutoff     =      70.0000  Ry
     charge density cutoff     =     560.0000  Ry
     scf convergence threshold =      1.0E-10
     mixing beta               =       0.4000
     number of iterations used =            8  plain     mixing
     Exchange-correlation= SLA  PW   PBE  PBE
                           (   1   4   3   4   0   0   0)

     celldm(1)=   6.400000  celldm(2)=   0.000000  celldm(3)=   0.000000
     celldm(4)=   0.000000  celldm(5)=   0.000000  celldm(6)=   0.000000

     crystal axes: (cart. coord. in units of alat)
               a(1) = (   0.500000   0.500000   0.500000 )  
               a(2) = (  -0.500000   0.500000   0.500000 )  
               a(3) = (  -0.500000  -0.500000   0.500000 )  

     reciprocal axes: (cart. coord. in units 2 pi/alat)
               b(1) = (  1.000000  0.000000  1.000000 )  
               b(2) = ( -1.000000  1.000000  0.000000 )  
               b(3) = (  0.000000 -1.000000  1.000000 )  


     PseudoPot. # 1 for Nb read from file:
     ./pseudo/nb_pbe_v1.uspp.F.UPF
     MD5 check sum: 573aab8a2fa660278ed4a62cd769473f
     Pseudo is Ultrasoft + core correction, Zval = 13.0
     Generated by new atomic code, or converted to UPF format
     Using radial grid of  887 points,  6 beta functions with: 
                l(1) =   0
                l(2) =   0
                l(3) =   1
                l(4) =   1
                l(5) =   2
                l(6) =   2
     Q(r) pseudized with  6 coefficients,  rinner =    1.000   1.000   1.000
                                                       1.000   1.000

     atomic species   valence    mass     pseudopotential
        Nb            13.00    92.90600     Nb( 1.00)

     48 Sym. Ops., with inversion, found



   Cartesian axes

     site n.     atom                  positions (alat units)
         1           Nb  tau(   1) = (   0.0000000   0.0000000   0.0000000  )

     number of k points=   145  Marzari-Vanderbilt smearing, width (Ry)=  0.0300

     Number of k-points >= 100: set verbosity='high' to print them.

     Dense  grid:    29197 G-vectors     FFT dimensions: (  45,  45,  45)

     Smooth grid:    10425 G-vectors     FFT dimensions: (  30,  30,  30)

     Estimated max dynamical RAM per process >     135.58 MB

     Initial potential from superposition of free atoms

     starting charge      12.9973, renormalised to      13.0000

     Initial potential from superposition of free atoms

     starting charge      12.9973, renormalised to      13.0000

     Initial potential from superposition of free atoms

     Initial potential from superposition of free atoms

     starting charge      12.9973, renormalised to      13.0000

     starting charge      12.9973, renormalised to      13.0000

     Initial potential from superposition of free atoms

     starting charge      12.9973, renormalised to      13.0000

     Initial potential from superposition of free atoms

     starting charge      12.9973, renormalised to      13.0000
     Starting wfcs are   13 randomized atomic wfcs
     Starting wfcs are   13 randomized atomic wfcs
     Starting wfcs are   13 randomized atomic wfcs
     Starting wfcs are   13 randomized atomic wfcs
     Starting wfcs are   13 randomized atomic wfcs
     Starting wfcs are   13 randomized atomic wfcs

     total cpu time spent up to now is        1.1 secs

     Self-consistent Calculation

     iteration #  1     ecut=    70.00 Ry     beta= 0.40
     Davidson diagonalization with overlap

     total cpu time spent up to now is        1.2 secs

     Self-consistent Calculation

     iteration #  1     ecut=    70.00 Ry     beta= 0.40
     Davidson diagonalization with overlap

     total cpu time spent up to now is        1.2 secs

     Self-consistent Calculation

     iteration #  1     ecut=    70.00 Ry     beta= 0.40
     Davidson diagonalization with overlap

     total cpu time spent up to now is        1.2 secs

     Self-consistent Calculation

     iteration #  1     ecut=    70.00 Ry     beta= 0.40
     Davidson diagonalization with overlap

     total cpu time spent up to now is        1.2 secs

     Self-consistent Calculation

     iteration #  1     ecut=    70.00 Ry     beta= 0.40
     Davidson diagonalization with overlap

     total cpu time spent up to now is        1.2 secs

     Self-consistent Calculation

     iteration #  1     ecut=    70.00 Ry     beta= 0.40
     Davidson diagonalization with overlap
     ethr =  1.00E-02,  avg # of iterations =  3.2
     ethr =  1.00E-02,  avg # of iterations =  3.2
     ethr =  1.00E-02,  avg # of iterations =  3.2
     ethr =  1.00E-02,  avg # of iterations =  3.2
     ethr =  1.00E-02,  avg # of iterations =  3.2
     ethr =  1.00E-02,  avg # of iterations =  3.2

     Threshold (ethr) on eigenvalues was too large:
     Diagonalizing with lowered threshold

     Davidson diagonalization with overlap

     Threshold (ethr) on eigenvalues was too large:
     Diagonalizing with lowered threshold

     Davidson diagonalization with overlap

     Threshold (ethr) on eigenvalues was too large:
     Diagonalizing with lowered threshold

     Davidson diagonalization with overlap

     Threshold (ethr) on eigenvalues was too large:
     Diagonalizing with lowered threshold

     Davidson diagonalization with overlap

     Threshold (ethr) on eigenvalues was too large:
     Diagonalizing with lowered threshold

     Davidson diagonalization with overlap

     Threshold (ethr) on eigenvalues was too large:
     Diagonalizing with lowered threshold

     Davidson diagonalization with overlap
     ethr =  7.72E-04,  avg # of iterations =  1.1
     ethr =  7.72E-04,  avg # of iterations =  1.1
     ethr =  7.72E-04,  avg # of iterations =  1.1
     ethr =  7.72E-04,  avg # of iterations =  1.1
     ethr =  7.72E-04,  avg # of iterations =  1.1

     total cpu time spent up to now is        5.1 secs

     total energy              =    -117.92308465 Ry
     estimated scf accuracy    <       0.10376052 Ry

     iteration #  2     ecut=    70.00 Ry     beta= 0.40
     Davidson diagonalization with overlap
     ethr =  7.72E-04,  avg # of iterations =  1.1

     total cpu time spent up to now is        5.2 secs

     total energy              =    -117.92308465 Ry
     estimated scf accuracy    <       0.10376052 Ry

     iteration #  2     ecut=    70.00 Ry     beta= 0.40
     Davidson diagonalization with overlap

     total cpu time spent up to now is        5.2 secs

     total energy              =    -117.92308465 Ry
     estimated scf accuracy    <       0.10376052 Ry

     iteration #  2     ecut=    70.00 Ry     beta= 0.40
     Davidson diagonalization with overlap

     total cpu time spent up to now is        5.3 secs

     total energy              =    -117.92308465 Ry
     estimated scf accuracy    <       0.10376052 Ry

     iteration #  2     ecut=    70.00 Ry     beta= 0.40
     Davidson diagonalization with overlap

     total cpu time spent up to now is        5.4 secs

     total energy              =    -117.92308465 Ry
     estimated scf accuracy    <       0.10376052 Ry

     iteration #  2     ecut=    70.00 Ry     beta= 0.40
     Davidson diagonalization with overlap

     total cpu time spent up to now is        5.6 secs

     total energy              =    -117.92308465 Ry
     estimated scf accuracy    <       0.10376052 Ry

     iteration #  2     ecut=    70.00 Ry     beta= 0.40
     Davidson diagonalization with overlap
     ethr =  7.98E-04,  avg # of iterations =  1.9
     ethr =  7.98E-04,  avg # of iterations =  1.9
     ethr =  7.98E-04,  avg # of iterations =  1.9
     ethr =  7.98E-04,  avg # of iterations =  1.9
     ethr =  7.98E-04,  avg # of iterations =  1.9

     total cpu time spent up to now is        7.1 secs

     total energy              =    -117.92739557 Ry
     estimated scf accuracy    <       0.01230023 Ry

     iteration #  3     ecut=    70.00 Ry     beta= 0.40
     Davidson diagonalization with overlap
     ethr =  7.98E-04,  avg # of iterations =  1.9

     total cpu time spent up to now is        7.2 secs

     total energy              =    -117.92739557 Ry
     estimated scf accuracy    <       0.01230023 Ry

     iteration #  3     ecut=    70.00 Ry     beta= 0.40
     Davidson diagonalization with overlap

     total cpu time spent up to now is        7.2 secs

     total energy              =    -117.92739557 Ry
     estimated scf accuracy    <       0.01230023 Ry

     iteration #  3     ecut=    70.00 Ry     beta= 0.40
     Davidson diagonalization with overlap

     total cpu time spent up to now is        7.3 secs

     total energy              =    -117.92739557 Ry
     estimated scf accuracy    <       0.01230023 Ry

     iteration #  3     ecut=    70.00 Ry     beta= 0.40
     Davidson diagonalization with overlap

     total cpu time spent up to now is        7.4 secs

     total energy              =    -117.92739557 Ry
     estimated scf accuracy    <       0.01230023 Ry

     iteration #  3     ecut=    70.00 Ry     beta= 0.40
     Davidson diagonalization with overlap

     total cpu time spent up to now is        7.6 secs

     total energy              =    -117.92739557 Ry
     estimated scf accuracy    <       0.01230023 Ry

     iteration #  3     ecut=    70.00 Ry     beta= 0.40
     Davidson diagonalization with overlap
     ethr =  9.46E-05,  avg # of iterations =  2.3
     ethr =  9.46E-05,  avg # of iterations =  2.3
     ethr =  9.46E-05,  avg # of iterations =  2.3
     ethr =  9.46E-05,  avg # of iterations =  2.3

     total cpu time spent up to now is        9.2 secs

     total energy              =    -117.92958982 Ry
     estimated scf accuracy    <       0.00074628 Ry

     iteration #  4     ecut=    70.00 Ry     beta= 0.40
     Davidson diagonalization with overlap
     ethr =  9.46E-05,  avg # of iterations =  2.3

     total cpu time spent up to now is        9.4 secs

     total energy              =    -117.92958982 Ry
     estimated scf accuracy    <       0.00074628 Ry

     iteration #  4     ecut=    70.00 Ry     beta= 0.40
     Davidson diagonalization with overlap

     total cpu time spent up to now is        9.4 secs

     total energy              =    -117.92958982 Ry
     estimated scf accuracy    <       0.00074628 Ry

     iteration #  4     ecut=    70.00 Ry     beta= 0.40
     Davidson diagonalization with overlap
     ethr =  9.46E-05,  avg # of iterations =  2.3

     total cpu time spent up to now is        9.6 secs

     total energy              =    -117.92958982 Ry
     estimated scf accuracy    <       0.00074628 Ry

     iteration #  4     ecut=    70.00 Ry     beta= 0.40
     Davidson diagonalization with overlap

     total cpu time spent up to now is        9.6 secs

     total energy              =    -117.92958982 Ry
     estimated scf accuracy    <       0.00074628 Ry

     iteration #  4     ecut=    70.00 Ry     beta= 0.40
     Davidson diagonalization with overlap

     total cpu time spent up to now is       10.0 secs

     total energy              =    -117.92958982 Ry
     estimated scf accuracy    <       0.00074628 Ry

     iteration #  4     ecut=    70.00 Ry     beta= 0.40
     Davidson diagonalization with overlap
     ethr =  5.74E-06,  avg # of iterations =  3.0
     ethr =  5.74E-06,  avg # of iterations =  3.0
     ethr =  5.74E-06,  avg # of iterations =  3.0
     ethr =  5.74E-06,  avg # of iterations =  3.0
     ethr =  5.74E-06,  avg # of iterations =  3.0

     total cpu time spent up to now is       11.6 secs

     total energy              =    -117.92964864 Ry
     estimated scf accuracy    <       0.00010345 Ry

     iteration #  5     ecut=    70.00 Ry     beta= 0.40
     Davidson diagonalization with overlap

     total cpu time spent up to now is       11.8 secs

     total energy              =    -117.92964864 Ry
     estimated scf accuracy    <       0.00010345 Ry

     iteration #  5     ecut=    70.00 Ry     beta= 0.40
     Davidson diagonalization with overlap

     total cpu time spent up to now is       11.9 secs

     total energy              =    -117.92964864 Ry
     estimated scf accuracy    <       0.00010345 Ry

     iteration #  5     ecut=    70.00 Ry     beta= 0.40
     Davidson diagonalization with overlap

     total cpu time spent up to now is       12.0 secs

     total energy              =    -117.92964864 Ry
     estimated scf accuracy    <       0.00010345 Ry

     iteration #  5     ecut=    70.00 Ry     beta= 0.40
     Davidson diagonalization with overlap

     total cpu time spent up to now is       12.0 secs

     total energy              =    -117.92964864 Ry
     estimated scf accuracy    <       0.00010345 Ry

     iteration #  5     ecut=    70.00 Ry     beta= 0.40
     Davidson diagonalization with overlap
     ethr =  5.74E-06,  avg # of iterations =  3.0

     total cpu time spent up to now is       12.5 secs

     total energy              =    -117.92964864 Ry
     estimated scf accuracy    <       0.00010345 Ry

     iteration #  5     ecut=    70.00 Ry     beta= 0.40
     Davidson diagonalization with overlap
     ethr =  7.96E-07,  avg # of iterations =  2.4
     ethr =  7.96E-07,  avg # of iterations =  2.4
     ethr =  7.96E-07,  avg # of iterations =  2.4
     ethr =  7.96E-07,  avg # of iterations =  2.4
     ethr =  7.96E-07,  avg # of iterations =  2.4

     total cpu time spent up to now is       14.0 secs

     total energy              =    -117.92967546 Ry
     estimated scf accuracy    <       0.00002310 Ry

     iteration #  6     ecut=    70.00 Ry     beta= 0.40
     Davidson diagonalization with overlap

     total cpu time spent up to now is       14.2 secs

     total energy              =    -117.92967546 Ry
     estimated scf accuracy    <       0.00002310 Ry

     iteration #  6     ecut=    70.00 Ry     beta= 0.40
     Davidson diagonalization with overlap

     total cpu time spent up to now is       14.3 secs

     total energy              =    -117.92967546 Ry
     estimated scf accuracy    <       0.00002310 Ry

     iteration #  6     ecut=    70.00 Ry     beta= 0.40
     Davidson diagonalization with overlap

     total cpu time spent up to now is       14.4 secs

     total energy              =    -117.92967546 Ry
     estimated scf accuracy    <       0.00002310 Ry

     iteration #  6     ecut=    70.00 Ry     beta= 0.40
     Davidson diagonalization with overlap
     ethr =  7.96E-07,  avg # of iterations =  2.4

     total cpu time spent up to now is       14.4 secs

     total energy              =    -117.92967546 Ry
     estimated scf accuracy    <       0.00002310 Ry

     iteration #  6     ecut=    70.00 Ry     beta= 0.40
     Davidson diagonalization with overlap

     total cpu time spent up to now is       14.8 secs

     total energy              =    -117.92967546 Ry
     estimated scf accuracy    <       0.00002310 Ry

     iteration #  6     ecut=    70.00 Ry     beta= 0.40
     Davidson diagonalization with overlap
     ethr =  1.78E-07,  avg # of iterations =  2.0
     ethr =  1.78E-07,  avg # of iterations =  2.0
     ethr =  1.78E-07,  avg # of iterations =  2.0

     total cpu time spent up to now is       16.0 secs

     total energy              =    -117.92967897 Ry
     estimated scf accuracy    <       0.00000002 Ry

     iteration #  7     ecut=    70.00 Ry     beta= 0.40
     Davidson diagonalization with overlap
     ethr =  1.78E-07,  avg # of iterations =  2.0
     ethr =  1.78E-07,  avg # of iterations =  2.0

     total cpu time spent up to now is       16.2 secs

     total energy              =    -117.92967897 Ry
     estimated scf accuracy    <       0.00000002 Ry

     iteration #  7     ecut=    70.00 Ry     beta= 0.40
     Davidson diagonalization with overlap
     ethr =  1.78E-07,  avg # of iterations =  2.0

     total cpu time spent up to now is       16.4 secs

     total energy              =    -117.92967897 Ry
     estimated scf accuracy    <       0.00000002 Ry

     iteration #  7     ecut=    70.00 Ry     beta= 0.40
     Davidson diagonalization with overlap

     total cpu time spent up to now is       16.4 secs

     total energy              =    -117.92967897 Ry
     estimated scf accuracy    <       0.00000002 Ry

     iteration #  7     ecut=    70.00 Ry     beta= 0.40
     Davidson diagonalization with overlap

     total cpu time spent up to now is       16.6 secs

     total energy              =    -117.92967897 Ry
     estimated scf accuracy    <       0.00000002 Ry

     iteration #  7     ecut=    70.00 Ry     beta= 0.40
     Davidson diagonalization with overlap

     total cpu time spent up to now is       16.8 secs

     total energy              =    -117.92967897 Ry
     estimated scf accuracy    <       0.00000002 Ry

     iteration #  7     ecut=    70.00 Ry     beta= 0.40
     Davidson diagonalization with overlap
     ethr =  1.91E-10,  avg # of iterations =  3.3
     ethr =  1.91E-10,  avg # of iterations =  3.3
     ethr =  1.91E-10,  avg # of iterations =  3.3

     total cpu time spent up to now is       18.5 secs

     total energy              =    -117.92967901 Ry
     estimated scf accuracy    <       0.00000002 Ry

     iteration #  8     ecut=    70.00 Ry     beta= 0.40
     Davidson diagonalization with overlap
     ethr =  1.91E-10,  avg # of iterations =  3.3
     ethr =  1.91E-10,  avg # of iterations =  3.3
     ethr =  1.91E-10,  avg # of iterations =  3.3

     total cpu time spent up to now is       18.9 secs

     total energy              =    -117.92967901 Ry
     estimated scf accuracy    <       0.00000002 Ry

     iteration #  8     ecut=    70.00 Ry     beta= 0.40
     Davidson diagonalization with overlap

     total cpu time spent up to now is       18.9 secs

     total energy              =    -117.92967901 Ry
     estimated scf accuracy    <       0.00000002 Ry

     iteration #  8     ecut=    70.00 Ry     beta= 0.40
     Davidson diagonalization with overlap

     total cpu time spent up to now is       19.0 secs

     total energy              =    -117.92967901 Ry
     estimated scf accuracy    <       0.00000002 Ry

     iteration #  8     ecut=    70.00 Ry     beta= 0.40
     Davidson diagonalization with overlap

     total cpu time spent up to now is       19.0 secs

     total energy              =    -117.92967901 Ry
     estimated scf accuracy    <       0.00000002 Ry

     iteration #  8     ecut=    70.00 Ry     beta= 0.40
     Davidson diagonalization with overlap

     total cpu time spent up to now is       19.2 secs

     total energy              =    -117.92967901 Ry
     estimated scf accuracy    <       0.00000002 Ry

     iteration #  8     ecut=    70.00 Ry     beta= 0.40
     Davidson diagonalization with overlap
     ethr =  1.15E-10,  avg # of iterations =  1.0
     ethr =  1.15E-10,  avg # of iterations =  1.0
     ethr =  1.15E-10,  avg # of iterations =  1.0

     total cpu time spent up to now is       20.3 secs

     total energy              =    -117.92967901 Ry
     estimated scf accuracy    <          1.0E-09 Ry

     iteration #  9     ecut=    70.00 Ry     beta= 0.40
     Davidson diagonalization with overlap
     ethr =  1.15E-10,  avg # of iterations =  1.0
     ethr =  1.15E-10,  avg # of iterations =  1.0
     ethr =  1.15E-10,  avg # of iterations =  1.0

     total cpu time spent up to now is       20.7 secs

     total energy              =    -117.92967901 Ry
     estimated scf accuracy    <          1.0E-09 Ry

     iteration #  9     ecut=    70.00 Ry     beta= 0.40
     Davidson diagonalization with overlap

     total cpu time spent up to now is       20.8 secs

     total energy              =    -117.92967901 Ry
     estimated scf accuracy    <          1.0E-09 Ry

     iteration #  9     ecut=    70.00 Ry     beta= 0.40
     Davidson diagonalization with overlap

     total cpu time spent up to now is       20.8 secs

     total energy              =    -117.92967901 Ry
     estimated scf accuracy    <          1.0E-09 Ry

     iteration #  9     ecut=    70.00 Ry     beta= 0.40
     Davidson diagonalization with overlap

     total cpu time spent up to now is       20.9 secs

     total energy              =    -117.92967901 Ry
     estimated scf accuracy    <          1.0E-09 Ry

     iteration #  9     ecut=    70.00 Ry     beta= 0.40
     Davidson diagonalization with overlap

     total cpu time spent up to now is       21.0 secs

     total energy              =    -117.92967901 Ry
     estimated scf accuracy    <          1.0E-09 Ry

     iteration #  9     ecut=    70.00 Ry     beta= 0.40
     Davidson diagonalization with overlap
     ethr =  7.92E-12,  avg # of iterations =  2.2
     ethr =  7.92E-12,  avg # of iterations =  2.2

     total cpu time spent up to now is       22.5 secs

     total energy              =    -117.92967901 Ry
     estimated scf accuracy    <          1.2E-09 Ry

     iteration # 10     ecut=    70.00 Ry     beta= 0.40
     Davidson diagonalization with overlap
     ethr =  7.92E-12,  avg # of iterations =  2.2
     ethr =  7.92E-12,  avg # of iterations =  2.2
     ethr =  7.92E-12,  avg # of iterations =  2.2
     ethr =  7.92E-12,  avg # of iterations =  2.2

     total cpu time spent up to now is       22.8 secs

     total energy              =    -117.92967901 Ry
     estimated scf accuracy    <          1.2E-09 Ry

     iteration # 10     ecut=    70.00 Ry     beta= 0.40
     Davidson diagonalization with overlap

     total cpu time spent up to now is       23.1 secs

     total energy              =    -117.92967901 Ry
     estimated scf accuracy    <          1.2E-09 Ry

     iteration # 10     ecut=    70.00 Ry     beta= 0.40
     Davidson diagonalization with overlap

     total cpu time spent up to now is       23.2 secs

     total energy              =    -117.92967901 Ry
     estimated scf accuracy    <          1.2E-09 Ry

     iteration # 10     ecut=    70.00 Ry     beta= 0.40
     Davidson diagonalization with overlap

     total cpu time spent up to now is       23.2 secs

     total energy              =    -117.92967901 Ry
     estimated scf accuracy    <          1.2E-09 Ry

     iteration # 10     ecut=    70.00 Ry     beta= 0.40
     Davidson diagonalization with overlap

     total cpu time spent up to now is       23.2 secs

     total energy              =    -117.92967901 Ry
     estimated scf accuracy    <          1.2E-09 Ry

     iteration # 10     ecut=    70.00 Ry     beta= 0.40
     Davidson diagonalization with overlap
     ethr =  7.92E-12,  avg # of iterations =  1.1
     ethr =  7.92E-12,  avg # of iterations =  1.1
     ethr =  7.92E-12,  avg # of iterations =  1.1

     total cpu time spent up to now is       24.5 secs

     total energy              =    -117.92967901 Ry
     estimated scf accuracy    <          2.9E-10 Ry

     iteration # 11     ecut=    70.00 Ry     beta= 0.40
     Davidson diagonalization with overlap
     ethr =  7.92E-12,  avg # of iterations =  1.1

     total cpu time spent up to now is       24.5 secs

     total energy              =    -117.92967901 Ry
     estimated scf accuracy    <          2.9E-10 Ry

     iteration # 11     ecut=    70.00 Ry     beta= 0.40
     Davidson diagonalization with overlap
     ethr =  7.92E-12,  avg # of iterations =  1.1
     ethr =  7.92E-12,  avg # of iterations =  1.1

     total cpu time spent up to now is       24.9 secs

     total energy              =    -117.92967901 Ry
     estimated scf accuracy    <          2.9E-10 Ry

     iteration # 11     ecut=    70.00 Ry     beta= 0.40
     Davidson diagonalization with overlap

     total cpu time spent up to now is       25.0 secs

     total energy              =    -117.92967901 Ry
     estimated scf accuracy    <          2.9E-10 Ry

     iteration # 11     ecut=    70.00 Ry     beta= 0.40
     Davidson diagonalization with overlap

     total cpu time spent up to now is       25.0 secs

     total energy              =    -117.92967901 Ry
     estimated scf accuracy    <          2.9E-10 Ry

     iteration # 11     ecut=    70.00 Ry     beta= 0.40
     Davidson diagonalization with overlap

     total cpu time spent up to now is       25.2 secs

     total energy              =    -117.92967901 Ry
     estimated scf accuracy    <          2.9E-10 Ry

     iteration # 11     ecut=    70.00 Ry     beta= 0.40
     Davidson diagonalization with overlap
     ethr =  2.22E-12,  avg # of iterations =  2.0
     ethr =  2.22E-12,  avg # of iterations =  2.0

     total cpu time spent up to now is       26.7 secs

     End of self-consistent calculation

     Number of k-points >= 100: set verbosity='high' to print the bands.

     the Fermi energy is    16.4826 ev

!    total energy              =    -117.92967901 Ry
     estimated scf accuracy    <          1.6E-11 Ry
     smearing contrib. (-TS)   =       0.00008167 Ry
     internal energy E=F+TS    =    -117.92976068 Ry

     The total energy is F=E-TS. E is the sum of the following terms:
     one-electron contribution =     -19.32680441 Ry
     hartree contribution      =      15.85838043 Ry
     xc contribution           =     -18.36282842 Ry
     ewald contribution        =     -96.09850828 Ry

     convergence has been achieved in  11 iterations

     Writing all to output data dir ./tmp/Nb_eos_6.40.save/

     total cpu time spent up to now is       26.8 secs

     End of self-consistent calculation

     Number of k-points >= 100: set verbosity='high' to print the bands.

     the Fermi energy is    16.4826 ev

!    total energy              =    -117.92967901 Ry
     estimated scf accuracy    <          1.6E-11 Ry
     smearing contrib. (-TS)   =       0.00008167 Ry
     internal energy E=F+TS    =    -117.92976068 Ry

     The total energy is F=E-TS. E is the sum of the following terms:
     one-electron contribution =     -19.32680441 Ry
     hartree contribution      =      15.85838043 Ry
     xc contribution           =     -18.36282842 Ry
     ewald contribution        =     -96.09850828 Ry

     convergence has been achieved in  11 iterations
     ethr =  2.22E-12,  avg # of iterations =  2.0

     Writing all to output data dir ./tmp/Nb_eos_6.40.save/
     ethr =  2.22E-12,  avg # of iterations =  2.0

     init_run     :      1.08s CPU      1.15s WALL (       1 calls)
     electrons    :     24.31s CPU     25.52s WALL (       1 calls)

     Called by init_run:
     wfcinit      :      0.85s CPU      0.90s WALL (       1 calls)
     potinit      :      0.03s CPU      0.03s WALL (       1 calls)
     hinit0       :      0.16s CPU      0.16s WALL (       1 calls)

     Called by electrons:
     c_bands      :     19.44s CPU     20.39s WALL (      12 calls)
     sum_band     :      4.39s CPU      4.57s WALL (      12 calls)
     v_of_rho     :      0.22s CPU      0.24s WALL (      12 calls)
     newd         :      0.27s CPU      0.34s WALL (      12 calls)
     mix_rho      :      0.02s CPU      0.02s WALL (      12 calls)

     Called by c_bands:
     init_us_2    :      0.52s CPU      0.54s WALL (    3625 calls)
     init_us_2:cp :      0.52s CPU      0.54s WALL (    3625 calls)
     cegterg      :     18.65s CPU     19.55s WALL (    1740 calls)

     Called by *egterg:
     cdiaghg      :      0.34s CPU      0.35s WALL (    5309 calls)
     h_psi        :     16.98s CPU     17.73s WALL (    5599 calls)
     s_psi        :      0.33s CPU      0.35s WALL (    5599 calls)
     g_psi        :      0.05s CPU      0.06s WALL (    3714 calls)

     Called by h_psi:
     h_psi:calbec :      0.38s CPU      0.40s WALL (    5599 calls)
     vloc_psi     :     16.22s CPU     16.93s WALL (    5599 calls)
     add_vuspsi   :      0.33s CPU      0.35s WALL (    5599 calls)

     General routines
     calbec       :      0.53s CPU      0.55s WALL (    7339 calls)
     fft          :      0.11s CPU      0.12s WALL (     155 calls)
     ffts         :      0.01s CPU      0.01s WALL (      24 calls)
     fftw         :     16.64s CPU     17.31s WALL (  112502 calls)
     interpolate  :      0.01s CPU      0.02s WALL (      12 calls)


     PWSCF        :     25.47s CPU     26.84s WALL


   This run was terminated on:  23:17:27   6Mar2026            

=------------------------------------------------------------------------------=
   JOB DONE.
=------------------------------------------------------------------------------=
Note: The following floating-point exceptions are signalling: IEEE_INVALID_FLAG IEEE_DIVIDE_BY_ZERO IEEE_UNDERFLOW_FLAG

     init_run     :      1.11s CPU      1.19s WALL (       1 calls)
     electrons    :     24.03s CPU     25.54s WALL (       1 calls)

     Called by init_run:
     wfcinit      :      0.88s CPU      0.93s WALL (       1 calls)
     potinit      :      0.03s CPU      0.03s WALL (       1 calls)
     hinit0       :      0.16s CPU      0.16s WALL (       1 calls)

     Called by electrons:
     c_bands      :     19.19s CPU     20.28s WALL (      12 calls)
     sum_band     :      4.36s CPU      4.64s WALL (      12 calls)
     v_of_rho     :      0.22s CPU      0.26s WALL (      12 calls)
     newd         :      0.27s CPU      0.37s WALL (      12 calls)
     mix_rho      :      0.02s CPU      0.02s WALL (      12 calls)

     Called by c_bands:
     init_us_2    :      0.52s CPU      0.54s WALL (    3625 calls)
     init_us_2:cp :      0.52s CPU      0.54s WALL (    3625 calls)
     cegterg      :     18.40s CPU     19.46s WALL (    1740 calls)

     Called by *egterg:
     cdiaghg      :      0.33s CPU      0.35s WALL (    5309 calls)
     h_psi        :     16.79s CPU     17.70s WALL (    5599 calls)
     s_psi        :      0.33s CPU      0.34s WALL (    5599 calls)
     g_psi        :      0.05s CPU      0.05s WALL (    3714 calls)

     Called by h_psi:
     h_psi:calbec :      0.38s CPU      0.40s WALL (    5599 calls)
     vloc_psi     :     16.04s CPU     16.90s WALL (    5599 calls)
     add_vuspsi   :      0.33s CPU      0.35s WALL (    5599 calls)

     General routines
     calbec       :      0.53s CPU      0.55s WALL (    7339 calls)
     fft          :      0.12s CPU      0.12s WALL (     155 calls)
     ffts         :      0.01s CPU      0.01s WALL (      24 calls)
     fftw         :     16.46s CPU     17.33s WALL (  112502 calls)
     interpolate  :      0.02s CPU      0.02s WALL (      12 calls)


     PWSCF        :     25.20s CPU     26.89s WALL


   This run was terminated on:  23:17:27   6Mar2026            

=------------------------------------------------------------------------------=
   JOB DONE.
=------------------------------------------------------------------------------=
Note: The following floating-point exceptions are signalling: IEEE_INVALID_FLAG IEEE_DIVIDE_BY_ZERO IEEE_UNDERFLOW_FLAG
     ethr =  2.22E-12,  avg # of iterations =  2.0
     ethr =  2.22E-12,  avg # of iterations =  2.0

     total cpu time spent up to now is       27.2 secs

     End of self-consistent calculation

     Number of k-points >= 100: set verbosity='high' to print the bands.

     the Fermi energy is    16.4826 ev

!    total energy              =    -117.92967901 Ry
     estimated scf accuracy    <          1.6E-11 Ry
     smearing contrib. (-TS)   =       0.00008167 Ry
     internal energy E=F+TS    =    -117.92976068 Ry

     The total energy is F=E-TS. E is the sum of the following terms:
     one-electron contribution =     -19.32680441 Ry
     hartree contribution      =      15.85838043 Ry
     xc contribution           =     -18.36282842 Ry
     ewald contribution        =     -96.09850828 Ry

     convergence has been achieved in  11 iterations

     Writing all to output data dir ./tmp/Nb_eos_6.40.save/

     total cpu time spent up to now is       27.2 secs

     End of self-consistent calculation

     Number of k-points >= 100: set verbosity='high' to print the bands.

     the Fermi energy is    16.4826 ev

!    total energy              =    -117.92967901 Ry
     estimated scf accuracy    <          1.6E-11 Ry
     smearing contrib. (-TS)   =       0.00008167 Ry
     internal energy E=F+TS    =    -117.92976068 Ry

     The total energy is F=E-TS. E is the sum of the following terms:
     one-electron contribution =     -19.32680441 Ry
     hartree contribution      =      15.85838043 Ry
     xc contribution           =     -18.36282842 Ry
     ewald contribution        =     -96.09850828 Ry

     convergence has been achieved in  11 iterations

     Writing all to output data dir ./tmp/Nb_eos_6.40.save/

     init_run     :      1.07s CPU      1.13s WALL (       1 calls)
     electrons    :     24.43s CPU     26.04s WALL (       1 calls)

     Called by init_run:
     wfcinit      :      0.84s CPU      0.88s WALL (       1 calls)
     potinit      :      0.02s CPU      0.02s WALL (       1 calls)
     hinit0       :      0.17s CPU      0.18s WALL (       1 calls)

     Called by electrons:
     c_bands      :     19.58s CPU     20.82s WALL (      12 calls)
     sum_band     :      4.36s CPU      4.61s WALL (      12 calls)
     v_of_rho     :      0.23s CPU      0.25s WALL (      12 calls)
     newd         :      0.27s CPU      0.35s WALL (      12 calls)
     mix_rho      :      0.02s CPU      0.03s WALL (      12 calls)

     Called by c_bands:
     init_us_2    :      0.52s CPU      0.54s WALL (    3625 calls)
     init_us_2:cp :      0.52s CPU      0.54s WALL (    3625 calls)
     cegterg      :     18.77s CPU     19.97s WALL (    1740 calls)

     Called by *egterg:
     cdiaghg      :      0.34s CPU      0.36s WALL (    5309 calls)
     h_psi        :     17.08s CPU     18.07s WALL (    5599 calls)
     s_psi        :      0.33s CPU      0.35s WALL (    5599 calls)
     g_psi        :      0.05s CPU      0.06s WALL (    3714 calls)

     Called by h_psi:
     h_psi:calbec :      0.39s CPU      0.41s WALL (    5599 calls)
     vloc_psi     :     16.31s CPU     17.25s WALL (    5599 calls)
     add_vuspsi   :      0.34s CPU      0.36s WALL (    5599 calls)

     General routines
     calbec       :      0.53s CPU      0.56s WALL (    7339 calls)
     fft          :      0.12s CPU      0.12s WALL (     155 calls)
     ffts         :      0.01s CPU      0.01s WALL (      24 calls)
     fftw         :     16.70s CPU     17.60s WALL (  112502 calls)
     interpolate  :      0.01s CPU      0.02s WALL (      12 calls)


     PWSCF        :     25.57s CPU     27.28s WALL


   This run was terminated on:  23:17:28   6Mar2026            

=------------------------------------------------------------------------------=
   JOB DONE.
=------------------------------------------------------------------------------=
Note: The following floating-point exceptions are signalling: IEEE_INVALID_FLAG IEEE_DIVIDE_BY_ZERO IEEE_UNDERFLOW_FLAG

     total cpu time spent up to now is       27.3 secs

     End of self-consistent calculation

     Number of k-points >= 100: set verbosity='high' to print the bands.

     the Fermi energy is    16.4826 ev

!    total energy              =    -117.92967901 Ry
     estimated scf accuracy    <          1.6E-11 Ry
     smearing contrib. (-TS)   =       0.00008167 Ry
     internal energy E=F+TS    =    -117.92976068 Ry

     The total energy is F=E-TS. E is the sum of the following terms:
     one-electron contribution =     -19.32680441 Ry
     hartree contribution      =      15.85838043 Ry
     xc contribution           =     -18.36282842 Ry
     ewald contribution        =     -96.09850828 Ry

     convergence has been achieved in  11 iterations

     Writing all to output data dir ./tmp/Nb_eos_6.40.save/

     init_run     :      1.09s CPU      1.17s WALL (       1 calls)
     electrons    :     24.32s CPU     26.01s WALL (       1 calls)

     Called by init_run:
     wfcinit      :      0.86s CPU      0.91s WALL (       1 calls)
     potinit      :      0.03s CPU      0.03s WALL (       1 calls)
     hinit0       :      0.17s CPU      0.18s WALL (       1 calls)

     Called by electrons:
     c_bands      :     19.52s CPU     20.92s WALL (      12 calls)
     sum_band     :      4.32s CPU      4.52s WALL (      12 calls)
     v_of_rho     :      0.22s CPU      0.25s WALL (      12 calls)
     newd         :      0.26s CPU      0.34s WALL (      12 calls)
     mix_rho      :      0.02s CPU      0.03s WALL (      12 calls)

     Called by c_bands:
     init_us_2    :      0.52s CPU      0.56s WALL (    3625 calls)
     init_us_2:cp :      0.52s CPU      0.55s WALL (    3625 calls)
     cegterg      :     18.72s CPU     20.05s WALL (    1740 calls)

     Called by *egterg:
     cdiaghg      :      0.34s CPU      0.36s WALL (    5309 calls)
     h_psi        :     17.05s CPU     18.15s WALL (    5599 calls)
     s_psi        :      0.33s CPU      0.36s WALL (    5599 calls)
     g_psi        :      0.05s CPU      0.06s WALL (    3714 calls)

     Called by h_psi:
     h_psi:calbec :      0.38s CPU      0.41s WALL (    5599 calls)
     vloc_psi     :     16.29s CPU     17.33s WALL (    5599 calls)
     add_vuspsi   :      0.33s CPU      0.35s WALL (    5599 calls)

     General routines
     calbec       :      0.53s CPU      0.56s WALL (    7339 calls)
     fft          :      0.12s CPU      0.12s WALL (     155 calls)
     ffts         :      0.01s CPU      0.01s WALL (      24 calls)
     fftw         :     16.65s CPU     17.61s WALL (  112502 calls)
     interpolate  :      0.02s CPU      0.02s WALL (      12 calls)


     PWSCF        :     25.48s CPU     27.30s WALL


   This run was terminated on:  23:17:28   6Mar2026            

=------------------------------------------------------------------------------=
   JOB DONE.
=------------------------------------------------------------------------------=
Note: The following floating-point exceptions are signalling: IEEE_INVALID_FLAG IEEE_DIVIDE_BY_ZERO IEEE_UNDERFLOW_FLAG

     init_run     :      1.11s CPU      1.18s WALL (       1 calls)
     electrons    :     24.31s CPU     26.06s WALL (       1 calls)

     Called by init_run:
     wfcinit      :      0.88s CPU      0.93s WALL (       1 calls)
     potinit      :      0.02s CPU      0.02s WALL (       1 calls)
     hinit0       :      0.16s CPU      0.17s WALL (       1 calls)

     Called by electrons:
     c_bands      :     19.43s CPU     20.66s WALL (      12 calls)
     sum_band     :      4.40s CPU      4.81s WALL (      12 calls)
     v_of_rho     :      0.22s CPU      0.26s WALL (      12 calls)
     newd         :      0.26s CPU      0.32s WALL (      12 calls)
     mix_rho      :      0.02s CPU      0.03s WALL (      12 calls)

     Called by c_bands:
     init_us_2    :      0.52s CPU      0.56s WALL (    3625 calls)
     init_us_2:cp :      0.52s CPU      0.56s WALL (    3625 calls)
     cegterg      :     18.64s CPU     19.81s WALL (    1740 calls)

     Called by *egterg:
     cdiaghg      :      0.34s CPU      0.36s WALL (    5309 calls)
     h_psi        :     17.00s CPU     17.99s WALL (    5599 calls)
     s_psi        :      0.33s CPU      0.35s WALL (    5599 calls)
     g_psi        :      0.05s CPU      0.05s WALL (    3714 calls)

     Called by h_psi:
     h_psi:calbec :      0.38s CPU      0.41s WALL (    5599 calls)
     vloc_psi     :     16.24s CPU     17.18s WALL (    5599 calls)
     add_vuspsi   :      0.33s CPU      0.36s WALL (    5599 calls)

     General routines
     calbec       :      0.53s CPU      0.57s WALL (    7339 calls)
     fft          :      0.12s CPU      0.13s WALL (     155 calls)
     ffts         :      0.01s CPU      0.01s WALL (      24 calls)
     fftw         :     16.65s CPU     17.63s WALL (  112502 calls)
     interpolate  :      0.01s CPU      0.02s WALL (      12 calls)


     PWSCF        :     25.49s CPU     27.35s WALL


   This run was terminated on:  23:17:28   6Mar2026            

=------------------------------------------------------------------------------=
   JOB DONE.
=------------------------------------------------------------------------------=
Note: The following floating-point exceptions are signalling: IEEE_INVALID_FLAG IEEE_DIVIDE_BY_ZERO IEEE_UNDERFLOW_FLAG

     total cpu time spent up to now is       27.4 secs

     End of self-consistent calculation

     Number of k-points >= 100: set verbosity='high' to print the bands.

     the Fermi energy is    16.4826 ev

!    total energy              =    -117.92967901 Ry
     estimated scf accuracy    <          1.6E-11 Ry
     smearing contrib. (-TS)   =       0.00008167 Ry
     internal energy E=F+TS    =    -117.92976068 Ry

     The total energy is F=E-TS. E is the sum of the following terms:
     one-electron contribution =     -19.32680441 Ry
     hartree contribution      =      15.85838043 Ry
     xc contribution           =     -18.36282842 Ry
     ewald contribution        =     -96.09850828 Ry

     convergence has been achieved in  11 iterations

     Writing all to output data dir ./tmp/Nb_eos_6.40.save/

     init_run     :      1.05s CPU      1.09s WALL (       1 calls)
     electrons    :     24.67s CPU     26.21s WALL (       1 calls)

     Called by init_run:
     wfcinit      :      0.82s CPU      0.84s WALL (       1 calls)
     potinit      :      0.02s CPU      0.02s WALL (       1 calls)
     hinit0       :      0.16s CPU      0.17s WALL (       1 calls)

     Called by electrons:
     c_bands      :     19.85s CPU     20.99s WALL (      12 calls)
     sum_band     :      4.35s CPU      4.64s WALL (      12 calls)
     v_of_rho     :      0.21s CPU      0.24s WALL (      12 calls)
     newd         :      0.26s CPU      0.34s WALL (      12 calls)
     mix_rho      :      0.02s CPU      0.03s WALL (      12 calls)

     Called by c_bands:
     init_us_2    :      0.53s CPU      0.55s WALL (    3625 calls)
     init_us_2:cp :      0.52s CPU      0.55s WALL (    3625 calls)
     cegterg      :     19.03s CPU     20.12s WALL (    1740 calls)

     Called by *egterg:
     cdiaghg      :      0.34s CPU      0.37s WALL (    5309 calls)
     h_psi        :     17.29s CPU     18.18s WALL (    5599 calls)
     s_psi        :      0.34s CPU      0.35s WALL (    5599 calls)
     g_psi        :      0.05s CPU      0.06s WALL (    3714 calls)

     Called by h_psi:
     h_psi:calbec :      0.39s CPU      0.40s WALL (    5599 calls)
     vloc_psi     :     16.52s CPU     17.36s WALL (    5599 calls)
     add_vuspsi   :      0.34s CPU      0.36s WALL (    5599 calls)

     General routines
     calbec       :      0.53s CPU      0.55s WALL (    7339 calls)
     fft          :      0.11s CPU      0.12s WALL (     155 calls)
     ffts         :      0.01s CPU      0.01s WALL (      24 calls)
     fftw         :     16.83s CPU     17.69s WALL (  112502 calls)
     interpolate  :      0.01s CPU      0.02s WALL (      12 calls)


     PWSCF        :     25.79s CPU     27.40s WALL


   This run was terminated on:  23:17:28   6Mar2026            

=------------------------------------------------------------------------------=
   JOB DONE.
=------------------------------------------------------------------------------=
Note: The following floating-point exceptions are signalling: IEEE_INVALID_FLAG IEEE_DIVIDE_BY_ZERO IEEE_UNDERFLOW_FLAG
