
     Program PHONON v.7.2 starts on  7Mar2026 at 23:40:17 

     This program is part of the open-source Quantum ESPRESSO suite
     for quantum simulation of materials; please cite
         "P. Giannozzi et al., J. Phys.:Condens. Matter 21 395502 (2009);
         "P. Giannozzi et al., J. Phys.:Condens. Matter 29 465901 (2017);
         "P. Giannozzi et al., J. Chem. Phys. 152 154105 (2020);
          URL http://www.quantum-espresso.org", 
     in publications or presentations arising from this work. More details at
     http://www.quantum-espresso.org/quote

     Serial multi-threaded version, running on    6 processor cores
     0 MiB available memory on the printing compute node when the environment starts

     Reading input from results/phonon/Nb_ph.in
     Run is not recoverable starting from scratch

     Reading xml data from directory:

     ./tmp/Nb.save/


     IMPORTANT: XC functional enforced from input :
     Exchange-correlation= PBE
                           (   1   4   3   4   0   0   0)
     Any further DFT definition will be discarded
     Please, verify this is what you really want


     G-vector sticks info
     --------------------
     sticks:   dense  smooth     PW     G-vecs:    dense   smooth      PW
     Sum        1243     619    197                27475     9693    1721

     Using Slab Decomposition

     Reading collected, re-writing distributed wavefunctions in ./tmp/


     Dynamical matrices for ( 2, 2, 2)  uniform grid of q-points
     (   3 q-points):
       N         xq(1)         xq(2)         xq(3) 
       1   0.000000000   0.000000000   0.000000000
       2   0.000000000   0.500000000  -0.500000000
       3   0.000000000   0.000000000  -1.000000000

     Calculation of q =    0.0000000   0.0000000   0.0000000

     Phonon calculation for Nb BCC                                              

     bravais-lattice index     =            3
     lattice parameter (alat)  =       6.2521  a.u.
     unit-cell volume          =     122.1934 (a.u.)^3
     number of atoms/cell      =            1
     number of atomic types    =            1
     kinetic-energy cut-off    =      70.0000  Ry
     charge density cut-off    =     560.0000  Ry
     convergence threshold     =      1.0E-14
     beta                      =       0.3000
     number of iterations used =            4
     Exchange-correlation= PBE
                           (   1   4   3   4   0   0   0)


     celldm(1)=    6.25210  celldm(2)=    0.00000  celldm(3)=    0.00000
     celldm(4)=    0.00000  celldm(5)=    0.00000  celldm(6)=    0.00000

     crystal axes: (cart. coord. in units of alat)
               a(1) = (  0.5000  0.5000  0.5000 )  
               a(2) = ( -0.5000  0.5000  0.5000 )  
               a(3) = ( -0.5000 -0.5000  0.5000 )  

     reciprocal axes: (cart. coord. in units 2 pi/alat)
               b(1) = (  1.0000  0.0000  1.0000 )  
               b(2) = ( -1.0000  1.0000  0.0000 )  
               b(3) = (  0.0000 -1.0000  1.0000 )  


     Atoms inside the unit cell: 

     Cartesian axes

     site n.  atom      mass           positions (alat units)
        1     Nb  92.9060   tau(    1) = (    0.00000    0.00000    0.00000  )

     Computing dynamical matrix for 
                    q = (   0.0000000   0.0000000   0.0000000 )

     49 Sym.Ops. (with q -> -q+G )


     G cutoff =  554.4726  (  27475 G-vectors)     FFT grid: ( 45, 45, 45)
     G cutoff =  277.2363  (   9693 G-vectors)  smooth grid: ( 30, 30, 30)

     number of k points=    72  Marzari-Vanderbilt smearing, width (Ry)=  0.0300

     PseudoPot. # 1 for Nb read from file:
     ./pseudo/nb_pbe_v1.uspp.F.UPF
     MD5 check sum: 573aab8a2fa660278ed4a62cd769473f
     Pseudo is Ultrasoft + core correction, Zval = 13.0
     Generated by new atomic code, or converted to UPF format
     Using radial grid of  887 points,  6 beta functions with: 
                l(1) =   0
                l(2) =   0
                l(3) =   1
                l(4) =   1
                l(5) =   2
                l(6) =   2
     Q(r) pseudized with  6 coefficients,  rinner =    1.000   1.000   1.000
                                                       1.000   1.000

     Mode symmetry, O_h (m-3m)  point group:


     Atomic displacements:
     There are    1 irreducible representations

     Representation     1      3 modes -  To be done



     Alpha used in Ewald sum =   2.8000
     PHONON       :   1m53.03s CPU     28.32s WALL



     Representation #   1 modes #   1   2   3

     Self-consistent Calculation

     Pert. #  1: Fermi energy shift (Ry) =     6.4623E-27     0.0000E+00
     Pert. #  2: Fermi energy shift (Ry) =    -3.6620E-26    -3.1347E-38
     Pert. #  3: Fermi energy shift (Ry) =    -5.3853E-27     0.0000E+00

      iter #   1 total cpu time :   374.9 secs   av.it.:   7.1
      thresh= 1.000E-02 alpha_mix =  0.300 |ddv_scf|^2 =  1.003E-06

     Pert. #  1: Fermi energy shift (Ry) =    -2.2187E-25    -3.0612E-41
     Pert. #  2: Fermi energy shift (Ry) =     1.0340E-25    -3.0612E-40
     Pert. #  3: Fermi energy shift (Ry) =    -2.1272E-26     2.1428E-40

      iter #   2 total cpu time :   838.5 secs   av.it.:  11.0
      thresh= 1.002E-04 alpha_mix =  0.300 |ddv_scf|^2 =  2.569E-07

     Pert. #  1: Fermi energy shift (Ry) =    -1.7233E-26    -3.8265E-42
     Pert. #  2: Fermi energy shift (Ry) =    -3.4466E-26    -7.6530E-42
     Pert. #  3: Fermi energy shift (Ry) =    -4.7391E-26     0.0000E+00

      iter #   3 total cpu time :  1323.1 secs   av.it.:  11.8
      thresh= 5.069E-05 alpha_mix =  0.300 |ddv_scf|^2 =  1.721E-09

     Pert. #  1: Fermi energy shift (Ry) =    -1.2925E-26     3.0612E-41
     Pert. #  2: Fermi energy shift (Ry) =    -3.8774E-26    -3.8265E-41
     Pert. #  3: Fermi energy shift (Ry) =     3.2312E-27     3.8265E-42

      iter #   4 total cpu time :  1833.9 secs   av.it.:  12.4
      thresh= 4.149E-06 alpha_mix =  0.300 |ddv_scf|^2 =  1.401E-11

     Pert. #  1: Fermi energy shift (Ry) =    -7.5394E-27     1.1958E-42
     Pert. #  2: Fermi energy shift (Ry) =    -3.2312E-27    -1.4349E-42
     Pert. #  3: Fermi energy shift (Ry) =    -4.5775E-27    -1.1958E-42

      iter #   5 total cpu time :  2322.9 secs   av.it.:  12.2
      thresh= 3.743E-07 alpha_mix =  0.300 |ddv_scf|^2 =  2.299E-12

     Pert. #  1: Fermi energy shift (Ry) =     1.1848E-26     7.1746E-43
     Pert. #  2: Fermi energy shift (Ry) =    -2.2618E-26     4.7831E-43
     Pert. #  3: Fermi energy shift (Ry) =    -3.7697E-27     0.0000E+00

      iter #   6 total cpu time :  2798.7 secs   av.it.:  12.1
      thresh= 1.516E-07 alpha_mix =  0.300 |ddv_scf|^2 =  4.045E-15

     End of self-consistent calculation

     Convergence has been achieved 

     Number of q in the star =    1
     List of q in the star:
          1   0.000000000   0.000000000   0.000000000

     Diagonalizing the dynamical matrix

     q = (    0.000000000   0.000000000   0.000000000 ) 

 **************************************************************************
     freq (    1) =       0.271342 [THz] =       9.051007 [cm-1]
     freq (    2) =       0.271342 [THz] =       9.051007 [cm-1]
     freq (    3) =       0.271342 [THz] =       9.051007 [cm-1]
 **************************************************************************

     Mode symmetry, O_h (m-3m)  point group:

     freq (   1-   3) =          9.1  [cm-1]   --> T_1u G_15  G_4- I  

     Calculation of q =    0.0000000   0.5000000  -0.5000000

     G-vector sticks info
     --------------------
     sticks:   dense  smooth     PW     G-vecs:    dense   smooth      PW
     Sum        1243     619    221                27475     9693    2123

     Using Slab Decomposition


     Title: 
     Phonon calculation for Nb BCC                                              


     bravais-lattice index     =            3
     lattice parameter (alat)  =       6.2521  a.u.
     unit-cell volume          =     122.1934 (a.u.)^3
     number of atoms/cell      =            1
     number of atomic types    =            1
     number of electrons       =        13.00
     number of Kohn-Sham states=           11
     kinetic-energy cutoff     =      70.0000  Ry
     charge density cutoff     =     560.0000  Ry
     Exchange-correlation= PBE
                           (   1   4   3   4   0   0   0)

     celldm(1)=   6.252100  celldm(2)=   0.000000  celldm(3)=   0.000000
     celldm(4)=   0.000000  celldm(5)=   0.000000  celldm(6)=   0.000000

     crystal axes: (cart. coord. in units of alat)
               a(1) = (   0.500000   0.500000   0.500000 )  
               a(2) = (  -0.500000   0.500000   0.500000 )  
               a(3) = (  -0.500000  -0.500000   0.500000 )  

     reciprocal axes: (cart. coord. in units 2 pi/alat)
               b(1) = (  1.000000  0.000000  1.000000 )  
               b(2) = ( -1.000000  1.000000  0.000000 )  
               b(3) = (  0.000000 -1.000000  1.000000 )  


     PseudoPot. # 1 for Nb read from file:
     ./pseudo/nb_pbe_v1.uspp.F.UPF
     MD5 check sum: 573aab8a2fa660278ed4a62cd769473f
     Pseudo is Ultrasoft + core correction, Zval = 13.0
     Generated by new atomic code, or converted to UPF format
     Using radial grid of  887 points,  6 beta functions with: 
                l(1) =   0
                l(2) =   0
                l(3) =   1
                l(4) =   1
                l(5) =   2
                l(6) =   2
     Q(r) pseudized with  6 coefficients,  rinner =    1.000   1.000   1.000
                                                       1.000   1.000

     atomic species   valence    mass     pseudopotential
        Nb            13.00    92.90600     Nb( 1.00)

     48 Sym. Ops., with inversion, found



   Cartesian axes

     site n.     atom                  positions (alat units)
         1           Nb  tau(   1) = (   0.0000000   0.0000000   0.0000000  )

     number of k points=   560  Marzari-Vanderbilt smearing, width (Ry)=  0.0300

     Number of k-points >= 100: set verbosity='high' to print them.

     Dense  grid:    27475 G-vectors     FFT dimensions: (  45,  45,  45)

     Smooth grid:     9693 G-vectors     FFT dimensions: (  30,  30,  30)

     Estimated max dynamical RAM per process >      90.61 MB

     The potential is recalculated from file :
     ./tmp/_ph0/Nb.save/charge-density

     Starting wfcs are   13 atomic wfcs

     Band Structure Calculation
     Davidson diagonalization with overlap

     ethr =  7.69E-11,  avg # of iterations = 13.6

     total cpu time spent up to now is     1649.5 secs

     End of band structure calculation

     Number of k-points >= 100: set verbosity='high' to print the bands.

     the Fermi energy is    17.8709 ev

     Writing config to output data dir ./tmp/_ph0/Nb.save/

     Phonon calculation for Nb BCC                                              

     bravais-lattice index     =            3
     lattice parameter (alat)  =       6.2521  a.u.
     unit-cell volume          =     122.1934 (a.u.)^3
     number of atoms/cell      =            1
     number of atomic types    =            1
     kinetic-energy cut-off    =      70.0000  Ry
     charge density cut-off    =     560.0000  Ry
     convergence threshold     =      1.0E-14
     beta                      =       0.3000
     number of iterations used =            4
     Exchange-correlation= PBE
                           (   1   4   3   4   0   0   0)


     celldm(1)=    6.25210  celldm(2)=    0.00000  celldm(3)=    0.00000
     celldm(4)=    0.00000  celldm(5)=    0.00000  celldm(6)=    0.00000

     crystal axes: (cart. coord. in units of alat)
               a(1) = (  0.5000  0.5000  0.5000 )  
               a(2) = ( -0.5000  0.5000  0.5000 )  
               a(3) = ( -0.5000 -0.5000  0.5000 )  

     reciprocal axes: (cart. coord. in units 2 pi/alat)
               b(1) = (  1.0000  0.0000  1.0000 )  
               b(2) = ( -1.0000  1.0000  0.0000 )  
               b(3) = (  0.0000 -1.0000  1.0000 )  


     Atoms inside the unit cell: 

     Cartesian axes

     site n.  atom      mass           positions (alat units)
        1     Nb  92.9060   tau(    1) = (    0.00000    0.00000    0.00000  )

     Computing dynamical matrix for 
                    q = (   0.0000000   0.5000000  -0.5000000 )

      9 Sym.Ops. (with q -> -q+G )


     G cutoff =  554.4726  (  27475 G-vectors)     FFT grid: ( 45, 45, 45)
     G cutoff =  277.2363  (   9693 G-vectors)  smooth grid: ( 30, 30, 30)

     number of k points=   560  Marzari-Vanderbilt smearing, width (Ry)=  0.0300

     PseudoPot. # 1 for Nb read from file:
     ./pseudo/nb_pbe_v1.uspp.F.UPF
     MD5 check sum: 573aab8a2fa660278ed4a62cd769473f
     Pseudo is Ultrasoft + core correction, Zval = 13.0
     Generated by new atomic code, or converted to UPF format
     Using radial grid of  887 points,  6 beta functions with: 
                l(1) =   0
                l(2) =   0
                l(3) =   1
                l(4) =   1
                l(5) =   2
                l(6) =   2
     Q(r) pseudized with  6 coefficients,  rinner =    1.000   1.000   1.000
                                                       1.000   1.000

     Mode symmetry, D_2h (mmm)  point group:


     Atomic displacements:
     There are    3 irreducible representations

     Representation     1      1 modes -  To be done

     Representation     2      1 modes -  To be done

     Representation     3      1 modes -  To be done



     Alpha used in Ewald sum =   2.8000
     PHONON       :      4h37m CPU      1h16m WALL



     Representation #   1 mode #   1

     Self-consistent Calculation

      iter #   1 total cpu time :  5096.0 secs   av.it.:   7.2
      thresh= 1.000E-02 alpha_mix =  0.300 |ddv_scf|^2 =  1.704E-05

      iter #   2 total cpu time :  5718.8 secs   av.it.:   9.8
      thresh= 4.128E-04 alpha_mix =  0.300 |ddv_scf|^2 =  3.592E-06

      iter #   3 total cpu time :  6348.9 secs   av.it.:  10.6
      thresh= 1.895E-04 alpha_mix =  0.300 |ddv_scf|^2 =  1.320E-08

      iter #   4 total cpu time :  6997.5 secs   av.it.:  10.9
      thresh= 1.149E-05 alpha_mix =  0.300 |ddv_scf|^2 =  3.678E-10

      iter #   5 total cpu time :  7650.8 secs   av.it.:  10.3
      thresh= 1.918E-06 alpha_mix =  0.300 |ddv_scf|^2 =  6.579E-11

      iter #   6 total cpu time :  8329.0 secs   av.it.:  11.1
      thresh= 8.111E-07 alpha_mix =  0.300 |ddv_scf|^2 =  3.082E-13

      iter #   7 total cpu time :  8987.5 secs   av.it.:  10.1
      thresh= 5.552E-08 alpha_mix =  0.300 |ddv_scf|^2 =  6.714E-14

      iter #   8 total cpu time :  9676.9 secs   av.it.:  10.7
      thresh= 2.591E-08 alpha_mix =  0.300 |ddv_scf|^2 =  6.525E-16

     End of self-consistent calculation

     Convergence has been achieved 


     Representation #   2 mode #   2

     Self-consistent Calculation

      iter #   1 total cpu time : 10201.9 secs   av.it.:   7.2
      thresh= 1.000E-02 alpha_mix =  0.300 |ddv_scf|^2 =  1.118E-05

      iter #   2 total cpu time : 10841.8 secs   av.it.:   9.8
      thresh= 3.343E-04 alpha_mix =  0.300 |ddv_scf|^2 =  2.647E-06

      iter #   3 total cpu time : 11518.1 secs   av.it.:  10.5
      thresh= 1.627E-04 alpha_mix =  0.300 |ddv_scf|^2 =  1.693E-08

      iter #   4 total cpu time : 12196.2 secs   av.it.:  10.9
      thresh= 1.301E-05 alpha_mix =  0.300 |ddv_scf|^2 =  1.401E-10

      iter #   5 total cpu time : 12901.7 secs   av.it.:  10.9
      thresh= 1.184E-06 alpha_mix =  0.300 |ddv_scf|^2 =  1.632E-11

      iter #   6 total cpu time : 13618.9 secs   av.it.:  11.0
      thresh= 4.040E-07 alpha_mix =  0.300 |ddv_scf|^2 =  2.910E-13

      iter #   7 total cpu time : 14295.4 secs   av.it.:  10.4
      thresh= 5.395E-08 alpha_mix =  0.300 |ddv_scf|^2 =  2.989E-14

      iter #   8 total cpu time : 14992.9 secs   av.it.:  10.8
      thresh= 1.729E-08 alpha_mix =  0.300 |ddv_scf|^2 =  9.573E-16

     End of self-consistent calculation

     Convergence has been achieved 


     Representation #   3 mode #   3

     Self-consistent Calculation

      iter #   1 total cpu time : 15565.8 secs   av.it.:   8.2
      thresh= 1.000E-02 alpha_mix =  0.300 |ddv_scf|^2 =  5.525E-04

      iter #   2 total cpu time : 16193.0 secs   av.it.:   9.5
      thresh= 2.350E-03 alpha_mix =  0.300 |ddv_scf|^2 =  8.518E-06

      iter #   3 total cpu time : 16818.9 secs   av.it.:   9.3
      thresh= 2.919E-04 alpha_mix =  0.300 |ddv_scf|^2 =  1.102E-07

      iter #   4 total cpu time : 17531.9 secs   av.it.:  11.1
      thresh= 3.320E-05 alpha_mix =  0.300 |ddv_scf|^2 =  2.394E-09

      iter #   5 total cpu time : 18187.1 secs   av.it.:  10.0
      thresh= 4.893E-06 alpha_mix =  0.300 |ddv_scf|^2 =  6.657E-10

      iter #   6 total cpu time : 18892.6 secs   av.it.:  11.0
      thresh= 2.580E-06 alpha_mix =  0.300 |ddv_scf|^2 =  3.119E-12

      iter #   7 total cpu time : 19572.0 secs   av.it.:  10.9
      thresh= 1.766E-07 alpha_mix =  0.300 |ddv_scf|^2 =  7.347E-14

      iter #   8 total cpu time : 20258.8 secs   av.it.:  10.7
      thresh= 2.711E-08 alpha_mix =  0.300 |ddv_scf|^2 =  8.923E-15

     End of self-consistent calculation

     Convergence has been achieved 

     Number of q in the star =    6
     List of q in the star:
          1   0.000000000   0.500000000  -0.500000000
          2  -0.500000000  -0.500000000   0.000000000
          3   0.500000000  -0.500000000   0.000000000
          4   0.000000000   0.500000000   0.500000000
          5  -0.500000000   0.000000000   0.500000000
          6  -0.500000000   0.000000000  -0.500000000

     Diagonalizing the dynamical matrix

     q = (    0.000000000   0.500000000  -0.500000000 ) 

 **************************************************************************
     freq (    1) =       3.915909 [THz] =     130.620652 [cm-1]
     freq (    2) =       4.934445 [THz] =     164.595376 [cm-1]
     freq (    3) =       5.194856 [THz] =     173.281759 [cm-1]
 **************************************************************************

     Mode symmetry, D_2h (mmm)  point group:

     freq (   1-   1) =        130.6  [cm-1]   --> B_2u               
     freq (   2-   2) =        164.6  [cm-1]   --> B_1u               
     freq (   3-   3) =        173.3  [cm-1]   --> B_3u               

     Calculation of q =    0.0000000   0.0000000  -1.0000000

     G-vector sticks info
     --------------------
     sticks:   dense  smooth     PW     G-vecs:    dense   smooth      PW
     Sum        1243     619    233                27475     9693    2315

     Using Slab Decomposition


     Title: 
     Phonon calculation for Nb BCC                                              


     bravais-lattice index     =            3
     lattice parameter (alat)  =       6.2521  a.u.
     unit-cell volume          =     122.1934 (a.u.)^3
     number of atoms/cell      =            1
     number of atomic types    =            1
     number of electrons       =        13.00
     number of Kohn-Sham states=           11
     kinetic-energy cutoff     =      70.0000  Ry
     charge density cutoff     =     560.0000  Ry
     Exchange-correlation= PBE
                           (   1   4   3   4   0   0   0)

     celldm(1)=   6.252100  celldm(2)=   0.000000  celldm(3)=   0.000000
     celldm(4)=   0.000000  celldm(5)=   0.000000  celldm(6)=   0.000000

     crystal axes: (cart. coord. in units of alat)
               a(1) = (   0.500000   0.500000   0.500000 )  
               a(2) = (  -0.500000   0.500000   0.500000 )  
               a(3) = (  -0.500000  -0.500000   0.500000 )  

     reciprocal axes: (cart. coord. in units 2 pi/alat)
               b(1) = (  1.000000  0.000000  1.000000 )  
               b(2) = ( -1.000000  1.000000  0.000000 )  
               b(3) = (  0.000000 -1.000000  1.000000 )  


     PseudoPot. # 1 for Nb read from file:
     ./pseudo/nb_pbe_v1.uspp.F.UPF
     MD5 check sum: 573aab8a2fa660278ed4a62cd769473f
     Pseudo is Ultrasoft + core correction, Zval = 13.0
     Generated by new atomic code, or converted to UPF format
     Using radial grid of  887 points,  6 beta functions with: 
                l(1) =   0
                l(2) =   0
                l(3) =   1
                l(4) =   1
                l(5) =   2
                l(6) =   2
     Q(r) pseudized with  6 coefficients,  rinner =    1.000   1.000   1.000
                                                       1.000   1.000

     atomic species   valence    mass     pseudopotential
        Nb            13.00    92.90600     Nb( 1.00)

     48 Sym. Ops., with inversion, found



   Cartesian axes

     site n.     atom                  positions (alat units)
         1           Nb  tau(   1) = (   0.0000000   0.0000000   0.0000000  )

     number of k points=   144  Marzari-Vanderbilt smearing, width (Ry)=  0.0300

     Number of k-points >= 100: set verbosity='high' to print them.

     Dense  grid:    27475 G-vectors     FFT dimensions: (  45,  45,  45)

     Smooth grid:     9693 G-vectors     FFT dimensions: (  30,  30,  30)

     Estimated max dynamical RAM per process >      90.64 MB

     The potential is recalculated from file :
     ./tmp/_ph0/Nb.save/charge-density

     Starting wfcs are   13 atomic wfcs

     Band Structure Calculation
     Davidson diagonalization with overlap

     ethr =  7.69E-11,  avg # of iterations = 13.0

     total cpu time spent up to now is     2087.1 secs

     End of band structure calculation

     Number of k-points >= 100: set verbosity='high' to print the bands.

     the Fermi energy is    17.8709 ev

     Writing config to output data dir ./tmp/_ph0/Nb.save/

     Phonon calculation for Nb BCC                                              

     bravais-lattice index     =            3
     lattice parameter (alat)  =       6.2521  a.u.
     unit-cell volume          =     122.1934 (a.u.)^3
     number of atoms/cell      =            1
     number of atomic types    =            1
     kinetic-energy cut-off    =      70.0000  Ry
     charge density cut-off    =     560.0000  Ry
     convergence threshold     =      1.0E-14
     beta                      =       0.3000
     number of iterations used =            4
     Exchange-correlation= PBE
                           (   1   4   3   4   0   0   0)


     celldm(1)=    6.25210  celldm(2)=    0.00000  celldm(3)=    0.00000
     celldm(4)=    0.00000  celldm(5)=    0.00000  celldm(6)=    0.00000

     crystal axes: (cart. coord. in units of alat)
               a(1) = (  0.5000  0.5000  0.5000 )  
               a(2) = ( -0.5000  0.5000  0.5000 )  
               a(3) = ( -0.5000 -0.5000  0.5000 )  

     reciprocal axes: (cart. coord. in units 2 pi/alat)
               b(1) = (  1.0000  0.0000  1.0000 )  
               b(2) = ( -1.0000  1.0000  0.0000 )  
               b(3) = (  0.0000 -1.0000  1.0000 )  


     Atoms inside the unit cell: 

     Cartesian axes

     site n.  atom      mass           positions (alat units)
        1     Nb  92.9060   tau(    1) = (    0.00000    0.00000    0.00000  )

     Computing dynamical matrix for 
                    q = (   0.0000000   0.0000000  -1.0000000 )

     49 Sym.Ops. (with q -> -q+G )


     G cutoff =  554.4726  (  27475 G-vectors)     FFT grid: ( 45, 45, 45)
     G cutoff =  277.2363  (   9693 G-vectors)  smooth grid: ( 30, 30, 30)

     number of k points=   144  Marzari-Vanderbilt smearing, width (Ry)=  0.0300

     PseudoPot. # 1 for Nb read from file:
     ./pseudo/nb_pbe_v1.uspp.F.UPF
     MD5 check sum: 573aab8a2fa660278ed4a62cd769473f
     Pseudo is Ultrasoft + core correction, Zval = 13.0
     Generated by new atomic code, or converted to UPF format
     Using radial grid of  887 points,  6 beta functions with: 
                l(1) =   0
                l(2) =   0
                l(3) =   1
                l(4) =   1
                l(5) =   2
                l(6) =   2
     Q(r) pseudized with  6 coefficients,  rinner =    1.000   1.000   1.000
                                                       1.000   1.000

     Mode symmetry, O_h (m-3m)  point group:


     Atomic displacements:
     There are    1 irreducible representations

     Representation     1      3 modes -  To be done



     Alpha used in Ewald sum =   2.8000
     PHONON       :     21h30m CPU      5h45m WALL



     Representation #   1 modes #   1   2   3

     Self-consistent Calculation

      iter #   1 total cpu time : 21176.4 secs   av.it.:   7.7
      thresh= 1.000E-02 alpha_mix =  0.300 |ddv_scf|^2 =  6.151E-06

      iter #   2 total cpu time : 21751.8 secs   av.it.:  11.2
      thresh= 2.480E-04 alpha_mix =  0.300 |ddv_scf|^2 =  6.285E-07

      iter #   3 total cpu time : 22346.9 secs   av.it.:  11.8
      thresh= 7.928E-05 alpha_mix =  0.300 |ddv_scf|^2 =  3.037E-09

      iter #   4 total cpu time : 22954.7 secs   av.it.:  12.1
      thresh= 5.511E-06 alpha_mix =  0.300 |ddv_scf|^2 =  5.916E-11

      iter #   5 total cpu time : 23525.3 secs   av.it.:  11.8
      thresh= 7.691E-07 alpha_mix =  0.300 |ddv_scf|^2 =  7.815E-12

      iter #   6 total cpu time : 24161.4 secs   av.it.:  12.7
      thresh= 2.796E-07 alpha_mix =  0.300 |ddv_scf|^2 =  8.882E-14

      iter #   7 total cpu time : 24763.4 secs   av.it.:  11.8
      thresh= 2.980E-08 alpha_mix =  0.300 |ddv_scf|^2 =  1.021E-14

      iter #   8 total cpu time : 25381.7 secs   av.it.:  12.3
      thresh= 1.010E-08 alpha_mix =  0.300 |ddv_scf|^2 =  1.701E-16

     End of self-consistent calculation

     Convergence has been achieved 

     Number of q in the star =    1
     List of q in the star:
          1   0.000000000   0.000000000  -1.000000000

     Diagonalizing the dynamical matrix

     q = (    0.000000000   0.000000000  -1.000000000 ) 

 **************************************************************************
     freq (    1) =       6.404089 [THz] =     213.617401 [cm-1]
     freq (    2) =       6.404089 [THz] =     213.617401 [cm-1]
     freq (    3) =       6.404089 [THz] =     213.617401 [cm-1]
 **************************************************************************

     Mode symmetry, O_h (m-3m)  point group:

     freq (   1-   3) =        213.6  [cm-1]   --> T_1u G_15  G_4-    

     init_run     :      2.28s CPU      0.53s WALL (       2 calls)
     electrons    :   7355.43s CPU   2086.51s WALL (       2 calls)

     Called by init_run:
     wfcinit      :      0.00s CPU      0.00s WALL (       2 calls)
     potinit      :      0.22s CPU      0.04s WALL (       2 calls)
     hinit0       :      1.57s CPU      0.37s WALL (       2 calls)

     Called by electrons:
     c_bands      :   7355.37s CPU   2086.50s WALL (       2 calls)
     v_of_rho     :      0.19s CPU      0.04s WALL (       3 calls)
     newd         :      0.16s CPU      0.07s WALL (       3 calls)

     Called by c_bands:
     init_us_2    :     15.58s CPU      3.68s WALL (   12096 calls)
     init_us_2:cp :     15.48s CPU      3.66s WALL (   12096 calls)
     cegterg      :   6638.76s CPU   1859.97s WALL (     708 calls)

     Called by *egterg:
     cdiaghg      :     11.52s CPU      2.84s WALL (   10170 calls)
     h_psi        :  80272.27s CPU  21431.32s WALL (  166738 calls)
     s_psi        :     68.01s CPU     23.05s WALL (  332342 calls)
     g_psi        :      4.14s CPU      0.84s WALL (    9466 calls)

     Called by h_psi:
     h_psi:calbec :     68.66s CPU     25.29s WALL (  166738 calls)
     vloc_psi     :  80101.22s CPU  21383.30s WALL (  166738 calls)
     add_vuspsi   :     35.56s CPU     10.28s WALL (  166738 calls)

     General routines
     calbec       :    138.33s CPU     44.96s WALL (  354166 calls)
     fft          :      5.74s CPU      1.07s WALL (    1300 calls)
     ffts         :      4.04s CPU      0.74s WALL (    1943 calls)
     fftw         :  93180.09s CPU  24906.17s WALL ( 1934266 calls)
     interpolate  :      1.15s CPU      0.23s WALL (     147 calls)
     davcio       :     19.59s CPU      4.79s WALL (   50568 calls)


     PHONON       :   1d 2h23m CPU      7h 3m WALL

     INITIALIZATION: 
     phq_setup    :      0.63s CPU      0.11s WALL (       3 calls)
     phq_init     :    674.72s CPU    180.20s WALL (       3 calls)

     phq_init     :    674.72s CPU    180.20s WALL (       3 calls)
     set_drhoc    :      4.11s CPU      0.89s WALL (       9 calls)
     init_vloc    :      0.01s CPU      0.00s WALL (       3 calls)
     init_us_1    :      2.05s CPU      0.47s WALL (       3 calls)
     init_us_2    :     15.58s CPU      3.68s WALL (   12096 calls)
     newd         :      0.16s CPU      0.07s WALL (       3 calls)
     dvanqq       :      4.12s CPU      0.74s WALL (       3 calls)
     drho         :    659.08s CPU    177.15s WALL (       3 calls)
     drhous       :    655.27s CPU    176.38s WALL (       3 calls)
     nldyntot     :      0.24s CPU      0.05s WALL (       3 calls)

     DYNAMICAL MATRIX:
     dynmat0      :      6.68s CPU      1.31s WALL (       3 calls)
     dynmat_us    :      3.71s CPU      0.68s WALL (       3 calls)
     addusdynmat  :      0.00s CPU      0.00s WALL (       3 calls)
     d2ionq       :      0.03s CPU      0.00s WALL (       3 calls)
     dynmatcc     :      2.93s CPU      0.63s WALL (       3 calls)
     phqscf       :  86990.95s CPU  23114.08s WALL (       3 calls)
     dynmatrix    :      0.01s CPU      0.00s WALL (       3 calls)

     phqscf       :  86990.95s CPU  23114.08s WALL (       3 calls)
     solve_linter :  86984.66s CPU  23112.96s WALL (       5 calls)
     sth_kernel   :  85683.55s CPU  22751.35s WALL (      38 calls)
     h_prec       :      1.10s CPU      0.23s WALL (    7728 calls)
     apply_dpot_b :   5678.85s CPU   1524.43s WALL (    8472 calls)
     ortho        :     20.73s CPU      5.53s WALL (    9744 calls)
     cgsolve      :  73379.10s CPU  19459.17s WALL (    9744 calls)
     incdrhoscf   :   6567.53s CPU   1752.97s WALL (    9744 calls)
                                        0.00s GPU  (    9744 calls)
     addusddens   :     11.81s CPU      2.26s WALL (      43 calls)
     dv_of_drho   :      4.46s CPU      1.00s WALL (      66 calls)
     mix_pot      :      1.42s CPU      0.36s WALL (      38 calls)
     ef_shift     :      0.19s CPU      0.03s WALL (       6 calls)
     ef_shift_wfc :      0.04s CPU      0.01s WALL (       1 calls)
     localdos     :      1.62s CPU      0.29s WALL (       1 calls)
     drhodv       :      6.25s CPU      1.11s WALL (       5 calls)
     symdvscf     :      6.97s CPU      1.58s WALL (      38 calls)
     newdq        :     11.77s CPU      2.85s WALL (      38 calls)
     adddvscf     :      7.40s CPU      1.93s WALL (    8472 calls)
     drhodvus     :      0.02s CPU      0.01s WALL (       5 calls)

     dvqpsi_us    :   1260.33s CPU    352.54s WALL (    1272 calls)
                                        0.00s GPU  (    1272 calls)
     dvqpsi_us_on :      2.74s CPU      0.93s WALL (    1272 calls)

     add_vuspsi   :     35.56s CPU     10.28s WALL (  166738 calls)
     addusdbec    :      9.44s CPU      2.91s WALL (   11016 calls)

     drhodvus     :      0.02s CPU      0.01s WALL (       5 calls)

      General routines
     calbec       :    138.33s CPU     44.96s WALL (  354166 calls)
     fft          :      5.74s CPU      1.07s WALL (    1300 calls)
     ffts         :      4.04s CPU      0.74s WALL (    1943 calls)
     fftw         :  93180.09s CPU  24906.17s WALL ( 1934266 calls)
     davcio       :     19.59s CPU      4.79s WALL (   50568 calls)
     write_rec    :      0.26s CPU      0.10s WALL (      43 calls)

      Additional routines
     ch_psi       :  73337.58s CPU  19449.34s WALL (  155860 calls)
     last         :    259.50s CPU     66.60s WALL (  155860 calls)
     Hesh         :      4.78s CPU      1.28s WALL (  155860 calls)
     ch_psi_all_k :    204.58s CPU     51.29s WALL (  155860 calls)
                                        0.00s GPU  (  155860 calls)
     ch_psi_calbe :     47.79s CPU     13.93s WALL (  155860 calls)
                                        0.00s GPU  (  155860 calls)
     h_psi_bgrp   :  80273.42s CPU  21431.59s WALL (  166738 calls)
     h_psi        :  80272.27s CPU  21431.32s WALL (  166738 calls)
     h_psi:pot    :  80208.98s CPU  21419.74s WALL (  166738 calls)
     h_psi:calbec :     68.66s CPU     25.29s WALL (  166738 calls)
     s_psi_bgrp   :    192.67s CPU     45.23s WALL (  332342 calls)
     s_psi        :     68.01s CPU     23.05s WALL (  332342 calls)


     PHONON       :   1d 2h23m CPU      7h 3m WALL


   This run was terminated on:   7:43:19   8Mar2026            

=------------------------------------------------------------------------------=
   JOB DONE.
=------------------------------------------------------------------------------=
Note: The following floating-point exceptions are signalling: IEEE_INVALID_FLAG IEEE_DIVIDE_BY_ZERO IEEE_UNDERFLOW_FLAG
